ITEM: TIMESTEP
250
ITEM: NUMBER OF ATOMS
500
ITEM: BOX BOUNDS pp pp pp
0.0000000000000000e+00 8.3979809569125372e+00
0.0000000000000000e+00 8.3979809569125372e+00
0.0000000000000000e+00 8.3979809569125372e+00
ITEM: ATOMS id type xs ys zs
1 1 0.0277004 0.955965 0.991378
2 1 0.0275185 0.125058 0.0179318
3 1 0.0958659 0.0340166 0.0745398
4 1 0.0883195 0.165045 0.110464
5 1 0.257429 0.126901 -3.66083e-06
8 1 0.280919 0.0211086 0.200862
21 1 0.00860232 0.233027 0.0149078
23 1 0.210298 0.115563 0.135198
25 1 0.1635 0.191743 0.00395264
101 1 0.0234393 0.938629 0.202123
102 1 0.100562 0.0439858 0.188241
105 1 0.207952 0.957061 0.273326
121 1 0.0800477 0.144902 0.235838
125 1 0.193806 0.0779217 0.262229
6 1 0.389206 0.160236 0.975752
7 1 0.315606 0.0812804 0.102643
9 1 0.351423 0.987498 0.980573
12 1 0.453585 0.0915215 0.0663902
27 1 0.284211 0.196594 0.0854097
29 1 0.462928 0.262382 0.991029
106 1 0.299108 0.141827 0.235911
109 1 0.411488 0.0323865 0.184227
129 1 0.397649 0.177735 0.141656
10 1 0.584168 0.138919 0.0125535
11 1 0.514452 0.991913 0.119174
13 1 0.456557 0.965529 0.0166042
16 1 0.616318 0.043827 0.145466
31 1 0.506237 0.20004 0.0876118
33 1 0.577319 0.272136 0.0350352
110 1 0.511009 0.106592 0.173208
113 1 0.658037 0.94691 0.186318
133 1 0.61663 0.166488 0.154965
14 1 0.653255 0.061144 0.938649
15 1 0.560323 0.0126655 -0.00224771
17 1 0.665183 0.923627 0.939275
20 1 0.813619 0.0320827 0.0639735
35 1 0.681437 0.119779 0.0610905
37 1 0.83541 0.205423 0.937622
114 1 0.723576 0.036615 0.144547
117 1 0.855381 0.935672 0.153802
137 1 0.774596 0.164556 0.16737
18 1 0.910379 0.0892209 0.981093
19 1 0.93338 0.0265334 0.0932583
39 1 0.790405 0.14376 0.0470613
118 1 0.850528 0.0514725 0.183574
22 1 0.12655 0.298861 0.0481469
24 1 0.0268365 0.268346 0.140404
28 1 0.171498 0.239137 0.149138
41 1 0.0231289 0.386642 0.0354268
43 1 0.0436788 0.385371 0.160026
45 1 0.187103 0.39577 0.0332076
122 1 0.119441 0.264546 0.30863
141 1 0.925405 0.35775 0.0892977
145 1 0.168384 0.359654 0.1605
26 1 0.273051 0.317805 0.0843933
32 1 0.417263 0.290386 0.11926
47 1 0.369918 0.404111 0.191621
49 1 0.378591 0.352732 0.993993
126 1 0.275669 0.257465 0.200494
149 1 0.470653 0.425916 0.326923
30 1 0.508291 0.376013 0.983872
36 1 0.610111 0.277445 0.152225
51 1 0.526977 0.355384 0.114506
53 1 0.654167 0.377471 0.927916
130 1 0.505228 0.226331 0.219968
153 1 0.584936 0.405249 0.226666
34 1 0.750261 0.327887 0.02859
40 1 0.699701 0.231057 0.094985
55 1 0.657905 0.395776 0.0570253
57 1 0.740644 0.472168 0.0357077
134 1 0.717952 0.33822 0.177721
157 1 0.850525 0.278049 0.160326
38 1 0.965316 0.153591 0.131819
59 1 0.896298 0.216923 0.0593616
138 1 0.880486 0.15903 0.22865
42 1 0.0857453 0.484014 0.981344
44 1 0.0370378 0.499175 0.100316
48 1 0.246441 0.458117 0.177101
61 1 0.988713 0.564089 1.00278
63 1 0.15409 0.498433 0.100886
65 1 0.2117 0.548015 0.986657
142 1 0.114961 0.499185 0.225236
161 1 0.000956049 0.596623 0.247855
165 1 0.153532 0.645458 0.213598
46 1 0.292701 0.474183 0.063441
52 1 0.418563 0.431384 0.0963998
67 1 0.387037 0.55657 0.0697941
69 1 0.408858 0.483262 0.929809
146 1 0.330417 0.489426 0.288438
169 1 0.385166 0.559432 0.203877
50 1 0.552035 0.425578 0.876845
56 1 0.482793 0.505541 0.0335385
71 1 0.440641 0.626384 0.974538
73 1 0.575964 0.604098 0.0483091
150 1 0.469271 0.470605 0.189957
173 1 0.586185 0.534716 0.190597
54 1 0.696368 0.608198 0.0855713
60 1 0.822925 0.413145 0.103619
75 1 0.554668 0.708895 0.145208
77 1 0.813748 0.584601 0.00553362
154 1 0.618467 0.502518 0.0865541
177 1 0.820072 0.534971 0.134915
58 1 0.920686 0.493855 0.0590706
79 1 0.906855 0.604788 0.162338
158 1 0.917758 0.455982 0.175825
62 1 0.0309434 0.681139 0.949087
64 1 0.0495581 0.643421 0.147731
68 1 0.232923 0.661637 0.034579
81 1 0.0369672 0.820529 0.0165033
83 1 0.129191 0.913608 0.150396
85 1 0.138996 0.783485 0.1105
162 1 0.997959 0.838688 0.145774
181 1 0.96072 0.695751 0.203849
185 1 0.172632 0.813965 0.229304
66 1 0.286149 0.588197 0.122172
72 1 0.3529 0.688486 0.0924687
87 1 0.243444 0.708877 0.162206
89 1 0.389582 0.800519 0.999871
166 1 0.254843 0.740697 0.283179
189 1 0.343258 0.820174 0.157765
70 1 0.505614 0.740216 0.0398833
76 1 0.607199 0.844474 0.146836
91 1 0.466929 0.824206 0.110291
93 1 0.640512 0.689677 0.990023
170 1 0.432373 0.684171 0.190802
193 1 0.652873 0.858982 0.268976
74 1 0.68843 0.749963 0.123192
80 1 0.78384 0.711443 0.0400751
95 1 0.757948 0.900179 0.0972494
97 1 0.894918 0.7776 0.996019
174 1 0.677594 0.744815 0.238267
197 1 0.808782 0.801361 0.129991
78 1 0.946064 0.673353 0.0220152
99 1 0.899326 0.725171 0.114233
178 1 0.779635 0.693277 0.191507
82 1 0.153319 0.0786135 0.950613
84 1 0.940257 0.880189 0.0352013
88 1 0.215594 0.992118 0.0915641
182 1 0.0674901 0.776087 0.246533
86 1 0.257516 0.839752 0.0261147
92 1 0.371987 0.897971 0.0763191
186 1 0.250316 0.894236 0.153586
90 1 0.568191 0.855875 0.00120375
96 1 0.642305 0.940748 0.0653873
190 1 0.355024 0.923888 0.221202
94 1 0.717027 0.811914 0.986192
100 1 0.810059 0.888878 0.98457
194 1 0.76904 0.873516 0.231584
98 1 0.946959 0.87767 0.911536
198 1 0.898041 0.837342 0.219426
103 1 0.095563 0.905753 0.344344
104 1 0.983238 0.069688 0.220076
108 1 0.261953 0.0837423 0.347935
123 1 0.171903 0.15603 0.367836
201 1 0.00339859 0.025442 0.402346
202 1 0.0886132 0.0422627 0.30923
205 1 0.293507 0.91406 0.529895
221 1 0.00369125 0.133479 0.332403
225 1 0.153719 0.218732 0.497436
107 1 0.307785 0.972051 0.337687
112 1 0.406738 0.0324125 0.313554
127 1 0.382966 0.279354 0.249848
206 1 0.288555 0.0959996 0.493303
209 1 0.331815 0.989055 0.445376
229 1 0.342197 0.16376 0.358921
111 1 0.501254 0.998156 0.268838
116 1 0.579698 0.138886 0.265443
131 1 0.4241 0.14518 0.268997
210 1 0.533396 0.105806 0.383311
213 1 0.595296 0.00822383 0.449568
233 1 0.590574 0.254506 0.410897
115 1 0.616691 0.00571414 0.321478
120 1 0.759198 0.991552 0.256276
135 1 0.73037 0.110267 0.269595
214 1 0.651869 0.131435 0.384745
217 1 0.738916 0.0400916 0.360773
237 1 0.841922 0.300381 0.487392
119 1 0.975079 0.988968 0.300684
139 1 0.97051 0.235712 0.247134
218 1 0.898586 0.0882803 0.338078
124 1 0.0933337 0.380563 0.283723
128 1 0.258114 0.262222 0.330953
143 1 0.164007 0.450894 0.366952
222 1 0.145052 0.323948 0.401801
241 1 0.0133486 0.407406 0.382098
245 1 0.235591 0.361834 0.477018
132 1 0.472748 0.284061 0.371779
147 1 0.226003 0.371704 0.287256
226 1 0.341224 0.347472 0.394771
249 1 0.430271 0.510124 0.498114
136 1 0.633614 0.245521 0.270639
151 1 0.51245 0.332297 0.27357
230 1 0.578494 0.375725 0.3685
253 1 0.767898 0.39279 0.479138
140 1 0.804749 0.229186 0.2792
155 1 0.68022 0.367704 0.300524
234 1 0.720836 0.26628 0.367993
257 1 0.825019 0.334906 0.375355
159 1 0.967591 0.384417 0.269343
238 1 0.949779 0.301816 0.387287
144 1 0.0665497 0.532086 0.339274
148 1 0.215885 0.529154 0.294024
163 1 0.146879 0.624003 0.330491
242 1 0.0684797 0.518808 0.497673
261 1 0.984124 0.564417 0.420031
265 1 0.252766 0.656788 0.382308
152 1 0.433037 0.552039 0.31627
167 1 0.270999 0.623898 0.252025
246 1 0.275877 0.446619 0.40696
269 1 0.439715 0.604445 0.416457
156 1 0.633145 0.49136 0.315357
171 1 0.508157 0.632323 0.260811
250 1 0.54323 0.540596 0.384572
273 1 0.611899 0.641947 0.337317
160 1 0.828307 0.393583 0.250488
175 1 0.70056 0.453591 0.206947
254 1 0.704166 0.56859 0.391787
277 1 0.722414 0.573092 0.223862
179 1 0.884556 0.513952 0.302004
258 1 0.750741 0.463271 0.336896
164 1 0.899114 0.653272 0.310422
168 1 0.145884 0.746836 0.360949
183 1 0.0374646 0.800715 0.392654
262 1 0.0287357 0.684071 0.326538
281 1 0.94851 0.786369 0.308726
285 1 0.235388 0.849787 0.320701
172 1 0.36111 0.669599 0.324713
187 1 0.37278 0.864902 0.328
266 1 0.241245 0.771143 0.415309
289 1 0.455053 0.842987 0.415638
176 1 0.545692 0.75145 0.253199
191 1 0.395489 0.775474 0.255003
270 1 0.486866 0.706766 0.344654
293 1 0.575761 0.791201 0.373384
180 1 0.730716 0.789194 0.365183
195 1 0.707128 0.921068 0.358684
274 1 0.6793 0.680586 0.431914
297 1 0.802117 0.847515 0.446757
199 1 0.831807 0.765204 0.277
278 1 0.753956 0.662798 0.317177
184 1 0.984356 0.896374 0.396165
188 1 0.197391 0.933631 0.410878
282 1 0.0327423 0.736822 0.536839
192 1 0.454119 0.955217 0.408256
286 1 0.309559 0.868522 0.426184
196 1 0.503044 0.873809 0.304029
290 1 0.557244 0.899628 0.466409
200 1 0.867532 0.894915 0.316481
294 1 0.706218 0.939161 0.547496
298 1 0.883321 0.97313 0.41505
203 1 0.0949834 0.901255 0.481889
204 1 0.906544 0.192608 0.424546
208 1 0.201287 0.998997 0.50824
223 1 0.0533085 0.255976 0.433435
301 1 0.0133982 0.00860876 0.533009
302 1 0.113629 0.0995072 0.550673
305 1 0.264844 0.0253073 0.714666
321 1 0.131084 0.0740084 0.433358
325 1 0.200031 0.23649 0.624191
207 1 0.367576 0.0091888 0.552231
212 1 0.409649 0.0990026 0.464054
227 1 0.28217 0.246891 0.461866
306 1 0.285865 0.176437 0.586408
309 1 0.366884 0.117757 0.655629
329 1 0.406955 0.218222 0.489258
211 1 0.482115 0.00839014 0.516925
216 1 0.570405 0.151496 0.484892
231 1 0.508807 0.260546 0.533553
310 1 0.455598 0.14276 0.561723
313 1 0.576705 0.0723727 0.575753
333 1 0.594153 0.196168 0.63468
215 1 0.702773 0.0768018 0.484328
220 1 0.788229 0.155292 0.377843
235 1 0.693793 0.193776 0.510107
314 1 0.709047 0.109793 0.616869
317 1 0.778164 0.0145653 0.601377
337 1 0.809345 0.155335 0.533715
219 1 0.897179 0.0707188 0.484048
239 1 0.946803 0.249413 0.534053
318 1 0.926179 0.0319463 0.621002
224 1 0.960517 0.369271 0.525024
228 1 0.119181 0.330135 0.528135
243 1 0.0991914 0.419447 0.461136
322 1 0.0493013 0.216982 0.576774
341 1 -0.0100846 0.432676 0.619587
345 1 0.200942 0.415189 0.578162
232 1 0.498099 0.370054 0.474469
247 1 0.333732 0.424264 0.51067
326 1 0.275206 0.308996 0.568539
349 1 0.500963 0.45362 0.601998
236 1 0.654326 0.34196 0.488515
251 1 0.582223 0.458441 0.505226
330 1 0.588349 0.338447 0.604239
353 1 0.699421 0.454405 0.556216
240 1 0.743828 0.322405 0.579729
255 1 0.785558 0.496456 0.457421
334 1 0.668688 0.265334 0.696893
357 1 0.832917 0.477582 0.583091
259 1 0.899663 0.44579 0.421048
338 1 0.869018 0.33194 0.598304
244 1 0.946865 0.501167 0.537776
248 1 0.199334 0.529127 0.458982
263 1 0.15907 0.639232 0.567676
342 1 0.119242 0.508532 0.608314
361 1 0.0366021 0.603916 0.58045
365 1 0.233059 0.540734 0.595305
252 1 0.315513 0.566032 0.523499
267 1 0.336998 0.558407 0.407389
346 1 0.310509 0.447411 0.661533
369 1 0.513962 0.568476 0.551783
256 1 0.6639 0.440234 0.419812
271 1 0.545606 0.683027 0.471371
350 1 0.623774 0.526582 0.609916
373 1 0.609369 0.659292 0.593892
260 1 0.84948 0.587169 0.396925
275 1 0.616686 0.568753 0.484752
354 1 0.733617 0.562144 0.554146
377 1 0.874625 0.620595 0.55242
279 1 0.817403 0.725639 0.3994
358 1 0.911659 0.52966 0.668574
264 1 0.925569 0.664264 0.450843
268 1 0.287198 0.711933 0.52674
283 1 0.0931097 0.636695 0.46393
362 1 0.143492 0.756135 0.622558
381 1 0.0488797 0.792752 0.676151
385 1 0.193278 0.839603 0.555539
272 1 0.383587 0.761473 0.451954
287 1 0.356924 0.805747 0.575056
366 1 0.405334 0.665603 0.555935
389 1 0.444954 0.872342 0.629948
276 1 0.662138 0.780897 0.586653
291 1 0.538491 0.785165 0.532975
370 1 0.487489 0.717166 0.614826
393 1 0.540948 0.82624 0.676698
280 1 0.792748 0.69962 0.51162
295 1 0.667129 0.835055 0.461762
374 1 0.715984 0.737761 0.713916
397 1 0.76007 0.831882 0.549734
299 1 0.913541 0.820878 0.461152
378 1 0.912318 0.742821 0.545205
284 1 0.985929 0.888918 0.556547
288 1 0.143653 0.741859 0.490223
382 1 0.093646 0.890726 0.627209
292 1 0.412062 0.899451 0.509534
386 1 0.276152 0.882825 0.678647
296 1 0.546606 0.948407 0.606384
390 1 0.422297 0.971321 0.691859
300 1 0.77125 0.96511 0.456072
394 1 0.669998 0.913928 0.669564
398 1 0.852 0.917 0.56957
303 1 0.0906839 0.968386 0.76266
304 1 0.058316 0.0051162 0.633822
308 1 0.177428 0.0974112 0.668983
323 1 0.09836 0.220784 0.68695
401 1 0.929533 0.975047 0.818388
402 1 0.0591512 0.128957 0.784872
405 1 0.169161 0.0979104 0.825773
421 1 0.958988 0.199066 0.761917
425 1 0.162499 0.224006 0.794022
307 1 0.193945 0.955607 0.809415
312 1 0.385557 0.237444 0.615988
327 1 0.296229 0.30305 0.68508
406 1 0.265657 0.183237 0.708462
409 1 0.414218 0.970743 0.885145
429 1 0.405548 0.311572 0.767657
311 1 0.414308 0.0640306 0.787065
316 1 0.490376 0.076488 0.674726
331 1 0.488334 0.251697 0.660435
410 1 0.418878 0.185978 0.744868
413 1 0.700849 0.996086 0.846532
433 1 0.599436 0.144804 0.737464
315 1 0.701892 0.00902725 0.716287
320 1 0.833285 0.0656267 0.699184
335 1 0.818745 0.224804 0.647555
414 1 0.717941 0.126188 0.758246
417 1 0.848589 0.0528806 0.840624
437 1 0.856478 0.172105 0.807676
319 1 0.819333 0.945639 0.7079
339 1 0.979219 0.124565 0.547371
418 1 0.950739 0.0612752 0.728488
324 1 0.985002 0.286865 0.658467
328 1 0.197213 0.336357 0.721339
343 1 0.104945 0.362878 0.658511
422 1 0.0750144 0.3112 0.786334
441 1 0.0510143 0.443993 0.837946
445 1 0.185833 0.361128 0.832043
332 1 0.414475 0.352931 0.571258
347 1 0.296401 0.456841 0.782525
426 1 0.275295 0.28183 0.812209
449 1 0.431256 0.405809 0.693808
336 1 0.549142 0.394815 0.759744
351 1 0.522142 0.506436 0.71384
430 1 0.559627 0.25504 0.776276
453 1 0.635156 0.497407 0.812684
340 1 0.926678 0.174884 0.635355
355 1 0.657575 0.424113 0.712468
434 1 0.762518 0.24627 0.786804
457 1 0.774299 0.337493 0.691201
359 1 0.979377 0.382987 0.744899
438 1 0.867741 0.285317 0.747098
344 1 0.0316932 0.533449 0.690383
348 1 0.141315 0.473781 0.717949
363 1 0.16007 0.590052 0.669039
442 1 0.990251 0.570894 0.870123
461 1 0.931453 0.626781 0.772468
465 1 0.129633 0.604709 0.79443
352 1 0.392391 0.536215 0.622397
367 1 0.371475 0.70561 0.683717
446 1 0.273954 0.561933 0.712634
469 1 0.39181 0.604837 0.866647
356 1 0.645076 0.592543 0.70689
371 1 0.474954 0.603074 0.672212
450 1 0.386577 0.589547 0.743325
473 1 0.553713 0.600254 0.786634
360 1 0.813872 0.465617 0.705152
375 1 0.737468 0.671147 0.618348
454 1 0.743757 0.55537 0.78349
477 1 0.807659 0.629867 0.715476
379 1 0.919178 0.673426 0.657989
458 1 0.877402 0.391002 0.815544
364 1 0.0788885 0.675555 0.712004
368 1 0.253303 0.673118 0.663775
383 1 0.124662 0.744072 0.822998
462 1 0.0302863 0.68042 0.831373
481 1 0.0102079 0.847154 0.793676
485 1 0.184794 0.771522 0.928274
372 1 0.37458 0.818049 0.730418
387 1 0.172168 0.850147 0.712855
466 1 0.319631 0.677121 0.802316
489 1 0.354787 0.757751 0.886409
376 1 0.586123 0.701727 0.699739
391 1 0.467579 0.868839 0.784547
470 1 0.436527 0.706142 0.786243
493 1 0.542454 0.77351 0.778936
380 1 0.829584 0.743978 0.631991
395 1 0.656723 0.863422 0.789771
474 1 0.679419 0.673717 0.806494
497 1 0.83075 0.716376 0.795574
399 1 0.933413 0.826482 0.644626
478 1 0.955965 0.746558 0.747299
384 1 0.97546 0.933964 0.684244
388 1 0.177744 0.97634 0.631369
482 1 0.100219 0.964528 0.891076
392 1 0.349355 0.928147 0.778344
486 1 0.261812 0.846152 0.790421
396 1 0.589079 0.9745 0.766706
490 1 0.440663 0.850004 0.895696
400 1 0.776571 0.841276 0.673266
494 1 0.549566 0.929121 0.877689
498 1 0.849381 0.840924 0.76823
403 1 0.248316 0.174328 0.892589
404 1 0.983841 0.0543286 0.893321
408 1 0.329565 0.161115 0.809123
423 1 0.0860579 0.213212 0.90492
407 1 0.26354 0.0340969 0.896399
412 1 0.431892 0.21604 0.864088
427 1 0.314985 0.246108 0.963699
411 1 0.46833 0.0718935 0.927892
416 1 0.518136 0.121962 0.821002
431 1 0.571687 0.202366 0.910642
415 1 0.781462 0.907727 0.83542
420 1 0.79502 0.0733593 0.947346
435 1 0.707757 0.20111 0.958599
419 1 0.885554 0.976895 0.940685
439 1 0.964067 0.190693 0.896156
424 1 0.944158 0.300682 0.859708
428 1 0.188862 0.30136 0.945435
443 1 0.0681107 0.34496 0.913401
432 1 0.381819 0.361816 0.874872
447 1 0.246839 0.412864 0.926516
436 1 0.64003 0.331908 0.805722
451 1 0.499656 0.320808 0.850667
440 1 0.754045 0.307702 0.889164
455 1 0.751106 0.405388 0.801015
459 1 0.892128 0.344374 0.98549
444 1 0.97103 0.442469 0.929718
448 1 0.159236 0.477763 0.873989
463 1 0.110619 0.589793 0.931867
452 1 0.449153 0.464741 0.802648
467 1 0.241614 0.579348 0.831531
456 1 0.60275 0.513276 0.965835
471 1 0.505133 0.544668 0.894473
460 1 0.784497 0.426958 0.925337
475 1 0.74163 0.546559 0.917479
479 1 0.864771 0.535564 0.865142
464 1 0.902478 0.648308 0.899233
468 1 0.219208 0.686638 0.870695
483 1 0.0849915 0.830647 0.887766
472 1 0.324421 0.578082 0.962471
487 1 0.30577 0.714034 0.971915
476 1 0.632119 0.591014 0.881746
491 1 0.488565 0.728456 0.892869
480 1 0.78595 0.690979 0.91648
495 1 0.722524 0.769739 0.847248
499 1 0.951368 0.759562 0.883911
484 1 0.133388 0.905451 0.0269914
488 1 0.197147 0.909931 0.922632
492 1 0.312768 0.893825 0.891116
496 1 0.602273 0.764148 0.886722
500 1 0.837785 0.820324 0.894055
