ITEM: TIMESTEP
50
ITEM: NUMBER OF ATOMS
500
ITEM: BOX BOUNDS pp pp pp
0.0000000000000000e+00 8.3979809569125372e+00
0.0000000000000000e+00 8.3979809569125372e+00
0.0000000000000000e+00 8.3979809569125372e+00
ITEM: ATOMS id type xs ys zs
1 1 0.00933022 0.986263 0.976928
2 1 0.0898069 0.111973 0.0205925
3 1 0.096138 0.00225836 0.143347
4 1 0.0125121 0.128032 0.100591
5 1 0.21387 0.0236461 0.010408
8 1 0.193358 0.104587 0.128744
21 1 0.0349734 0.224153 0.00387863
23 1 0.114101 0.203642 0.121005
25 1 0.209732 0.185092 0.024023
101 1 0.0153768 0.981863 0.220858
102 1 0.118653 0.0900841 0.234154
105 1 0.223197 0.980041 0.237779
121 1 0.0510476 0.204175 0.228889
125 1 0.218426 0.197726 0.217806
6 1 0.314271 0.107877 0.992486
7 1 0.325701 0.985639 0.0285785
9 1 0.414376 0.0226501 0.949127
12 1 0.404513 0.0804434 0.0670498
27 1 0.291199 0.204049 0.109033
29 1 0.366108 0.231603 0.0010252
106 1 0.290949 0.0727848 0.220209
109 1 0.391153 0.0206883 0.198005
129 1 0.386456 0.17015 0.180342
10 1 0.525788 0.115391 0.976512
11 1 0.53224 0.99005 0.131313
13 1 0.568933 0.990963 0.972553
16 1 0.582694 0.0890498 0.0885378
31 1 0.514185 0.197894 0.117644
33 1 0.6114 0.204229 1.01008
110 1 0.504873 0.0884847 0.189627
113 1 0.600272 0.0385681 0.231323
133 1 0.610055 0.18801 0.185053
14 1 0.670164 0.0701859 0.956847
15 1 0.717282 0.0170235 0.0627912
17 1 0.775729 0.00319714 0.949951
20 1 0.830878 0.0397097 0.105515
35 1 0.734359 0.133819 0.0550879
37 1 0.841741 0.263117 0.96313
114 1 0.714665 0.0715774 0.174745
117 1 0.811064 0.987373 0.207013
137 1 0.772131 0.174208 0.164104
18 1 0.92788 0.0792011 0.973069
19 1 0.967105 0.0142848 0.0835486
39 1 0.890622 0.159545 0.103921
118 1 0.917416 0.0479171 0.190119
22 1 0.122325 0.293507 0.0269179
24 1 0.0419839 0.304265 0.120078
28 1 0.1909 0.29769 0.118863
41 1 0.0190187 0.36831 1.00629
43 1 0.0893816 0.420551 0.123828
45 1 0.193334 0.397901 0.0320116
122 1 0.13159 0.303687 0.235852
141 1 0.99632 0.352957 0.234716
145 1 0.188355 0.403028 0.198307
26 1 0.268066 0.305452 0.0216575
32 1 0.40268 0.297647 0.120825
47 1 0.30001 0.408853 0.125872
49 1 0.360857 0.382924 0.998258
126 1 0.285437 0.305123 0.215144
149 1 0.394227 0.39271 0.208837
30 1 0.510317 0.323451 0.0240483
36 1 0.582873 0.299499 0.123024
51 1 0.506883 0.38552 0.14832
53 1 0.642477 0.388962 0.985238
130 1 0.506721 0.283987 0.249905
153 1 0.610064 0.396338 0.230721
34 1 0.721345 0.29094 0.966351
40 1 0.779031 0.290212 0.0625954
55 1 0.68285 0.365521 0.108427
57 1 0.762053 0.409513 0.013066
134 1 0.704562 0.316503 0.227871
157 1 0.78241 0.42593 0.186499
38 1 0.918338 0.284787 0.0706653
59 1 0.886801 0.395551 0.0957071
138 1 0.856456 0.260629 0.177555
42 1 0.0792182 0.521942 0.94701
44 1 0.0182627 0.52663 0.066789
48 1 0.194041 0.527243 0.134745
61 1 0.991156 0.610384 0.971908
63 1 0.0842335 0.599119 0.13743
65 1 0.18335 0.560607 0.987873
142 1 0.0936921 0.490788 0.223318
161 1 0.98795 0.553094 0.208802
165 1 0.17466 0.635208 0.218909
46 1 0.277745 0.501061 0.0314246
52 1 0.416129 0.472272 0.0693458
67 1 0.329387 0.562364 0.111467
69 1 0.413533 0.577421 0.978231
146 1 0.333109 0.503958 0.212217
169 1 0.408833 0.607834 0.178673
50 1 0.520326 0.477855 -0.00824855
56 1 0.59708 0.444758 0.0979104
71 1 0.50732 0.568444 0.0860513
73 1 0.591601 0.589087 0.986905
150 1 0.456041 0.495115 0.178038
173 1 0.592412 0.566668 0.193475
54 1 0.739143 0.536851 0.977511
60 1 0.801543 0.503782 0.0967819
75 1 0.644905 0.606357 0.0941041
77 1 0.824352 0.611041 0.0243935
154 1 0.696878 0.488766 0.140008
177 1 0.792957 0.594709 0.181341
58 1 0.873722 0.503734 0.00915381
79 1 0.927393 0.617133 0.110093
158 1 0.898305 0.470112 0.195987
62 1 0.0712224 0.690156 0.959691
64 1 0.0240393 0.705611 0.0803425
68 1 0.153882 0.662543 0.0627303
81 1 1.00911 0.80315 0.987602
83 1 0.112303 0.777873 0.100217
85 1 0.151331 0.842644 0.989865
162 1 0.0909457 0.706287 0.204297
181 1 0.027734 0.82372 0.186273
185 1 0.221944 0.78966 0.213178
66 1 0.278802 0.660244 0.0192042
72 1 0.385339 0.714138 0.100832
87 1 0.252394 0.762773 0.0793335
89 1 0.407779 0.825992 0.0247995
166 1 0.310016 0.682231 0.182987
189 1 0.376978 0.816565 0.165571
70 1 0.493693 0.712214 0.0444988
76 1 0.604315 0.724432 0.0939804
91 1 0.497687 0.805463 0.132522
93 1 0.607945 0.794686 0.00267307
170 1 0.526744 0.669991 0.174014
193 1 0.623726 0.817307 0.202536
74 1 0.717923 0.696372 0.0277223
80 1 0.825285 0.705825 0.120033
95 1 0.726589 0.807311 0.132843
97 1 0.788027 0.815465 0.989243
174 1 0.688404 0.687292 0.17735
197 1 0.829324 0.806609 0.189642
78 1 0.911282 0.706151 0.0277727
99 1 0.929468 0.80326 0.117327
178 1 0.860691 0.679619 0.241019
82 1 0.104341 0.9348 0.946372
84 1 0.987464 0.908472 0.127256
88 1 0.19324 0.927608 0.127042
182 1 0.127278 0.896449 0.218263
86 1 0.272144 0.865127 0.00816715
92 1 0.418346 0.919118 0.103613
186 1 0.313218 0.911748 0.198761
90 1 0.527585 0.895141 0.0386828
96 1 0.651815 0.933592 0.122897
190 1 0.467975 0.901272 0.22017
94 1 0.694728 0.882424 0.013463
100 1 0.838573 0.898642 0.107279
194 1 0.676672 0.935585 0.238845
98 1 0.907547 0.888812 0.00938749
198 1 0.89997 0.905055 0.210526
103 1 0.0640369 0.96675 0.338668
104 1 0.982463 0.0911373 0.2783
108 1 0.194743 0.0622441 0.345683
123 1 0.151883 0.175456 0.312126
201 1 0.964572 1.00089 0.409441
202 1 0.0914861 0.0738825 0.409646
205 1 0.23779 0.984296 0.466661
221 1 0.0451983 0.172839 0.373708
225 1 0.174478 0.166914 0.424291
107 1 0.301601 0.00419664 0.325783
112 1 0.35074 0.120133 0.338134
127 1 0.349491 0.233361 0.290998
206 1 0.282106 0.0868536 0.434422
209 1 0.39947 0.0129212 0.392985
229 1 0.399205 0.213165 0.414524
111 1 0.475019 0.0192298 0.302202
116 1 0.585864 0.125283 0.301774
131 1 0.45606 0.185832 0.288242
210 1 0.47137 0.109532 0.388144
213 1 0.605254 0.0327083 0.388054
233 1 0.55953 0.194499 0.398564
115 1 0.715048 0.0209977 0.300755
120 1 0.79862 0.120015 0.314473
135 1 0.693315 0.175441 0.271275
214 1 0.709561 0.12117 0.386365
217 1 0.782651 0.938468 0.400838
237 1 0.798337 0.234058 0.432804
119 1 0.879353 0.00455715 0.326166
139 1 0.936132 0.203239 0.310937
218 1 0.916104 0.112157 0.380052
124 1 0.0285008 0.276524 0.329019
128 1 0.231207 0.269181 0.30991
143 1 0.0995159 0.394148 0.282046
222 1 0.136197 0.297337 0.385493
241 1 0.00524398 0.375202 0.393782
245 1 0.219855 0.408388 0.380898
132 1 0.41781 0.317066 0.338573
147 1 0.307313 0.400764 0.299861
226 1 0.305045 0.291656 0.399977
249 1 0.403462 0.418624 0.394607
136 1 0.600023 0.238459 0.293176
151 1 0.511869 0.396884 0.314885
230 1 0.53618 0.304286 0.386116
253 1 0.665806 0.370443 0.434376
140 1 0.775953 0.2588 0.321297
155 1 0.727181 0.397369 0.302192
234 1 0.675485 0.237381 0.384537
257 1 0.814537 0.346486 0.405165
159 1 0.847275 0.349625 0.27154
238 1 0.929535 0.27456 0.403214
144 1 -0.00466798 0.460968 0.302809
148 1 0.191376 0.502885 0.291117
163 1 0.0885429 0.575182 0.298674
242 1 0.0902984 0.467898 0.415434
261 1 0.983896 0.571459 0.379718
265 1 0.143157 0.586218 0.407938
152 1 0.427016 0.528517 0.304444
167 1 0.283202 0.61691 0.338378
246 1 0.309182 0.495556 0.412944
269 1 0.399013 0.582004 0.412391
156 1 0.547209 0.511205 0.293735
171 1 0.514629 0.636441 0.299083
250 1 0.5064 0.51066 0.4127
273 1 0.624657 0.587524 0.348695
160 1 0.807939 0.486885 0.290608
175 1 0.719049 0.560356 0.256624
254 1 0.71968 0.505106 0.397987
277 1 0.781645 0.595523 0.348163
179 1 0.894711 0.578678 0.294387
258 1 0.898616 0.472881 0.402996
164 1 0.968477 0.711421 0.2932
168 1 0.197906 0.705747 0.313706
183 1 0.0957387 0.793058 0.301009
262 1 0.0846852 0.689195 0.374303
281 1 0.948722 0.77325 0.401293
285 1 0.226134 0.837515 0.35247
172 1 0.395757 0.694213 0.295572
187 1 0.318504 0.80794 0.28525
266 1 0.264065 0.741486 0.411474
289 1 0.400135 0.797886 0.379076
176 1 0.621375 0.686643 0.287602
191 1 0.508106 0.771485 0.253469
270 1 0.52198 0.733088 0.396713
293 1 0.61547 0.811438 0.422783
180 1 0.735981 0.724716 0.275953
195 1 0.68191 0.877372 0.338297
274 1 0.687758 0.702523 0.394964
297 1 0.764576 0.806977 0.393999
199 1 0.884599 0.786313 0.291741
278 1 0.854884 0.701716 0.372137
184 1 0.984212 0.872761 0.29956
188 1 0.174842 0.9489 0.348728
282 1 0.0727091 0.861208 0.412209
192 1 0.429198 0.915368 0.329525
286 1 0.325969 0.918632 0.39712
196 1 0.568123 0.885219 0.301988
290 1 0.521295 0.880092 0.410711
200 1 0.808177 0.874898 0.295693
294 1 0.666555 0.914425 0.458959
298 1 0.891223 0.892273 0.38202
203 1 0.106117 0.972226 0.478726
204 1 0.98579 0.109656 0.47377
208 1 0.175556 0.0948209 0.526996
223 1 0.0795654 0.241949 0.486943
301 1 0.0308464 0.0263152 0.560414
302 1 0.108546 0.0971135 0.616194
305 1 0.208216 -0.00927027 0.589535
321 1 0.0122826 0.206069 0.578156
325 1 0.197364 0.202394 0.625919
207 1 0.341397 1.01207 0.532119
212 1 0.387933 0.113364 0.51631
227 1 0.284516 0.201066 0.501597
306 1 0.288409 0.114283 0.588843
309 1 0.349611 0.036239 0.649618
329 1 0.371847 0.232782 0.575064
211 1 0.470885 0.00677279 0.497686
216 1 0.590153 0.112801 0.49606
231 1 0.482827 0.196927 0.51018
310 1 0.493198 0.102831 0.575116
313 1 0.590039 -0.00539553 0.593719
333 1 0.620797 0.224304 0.645057
215 1 0.703981 0.026842 0.47735
220 1 0.823842 0.128365 0.44938
235 1 0.681569 0.161642 0.535491
314 1 0.685878 0.0581847 0.61869
317 1 0.78458 0.981661 0.613789
337 1 0.810994 0.184523 0.581523
219 1 0.866648 0.0271226 0.487428
239 1 0.915148 0.201799 0.512985
318 1 0.920562 0.0836729 0.587858
224 1 0.00624766 0.346442 0.529397
228 1 0.188133 0.280519 0.515587
243 1 0.126455 0.379822 0.475737
322 1 0.103687 0.316029 0.60163
341 1 0.0110356 0.451252 0.584386
345 1 0.202002 0.398001 0.595885
232 1 0.420507 0.324966 0.497307
247 1 0.300896 0.393233 0.475519
326 1 0.288684 0.309328 0.581112
349 1 0.439749 0.428318 0.601777
236 1 0.613274 0.24911 0.495153
251 1 0.551709 0.41172 0.454683
330 1 0.510894 0.282038 0.623525
353 1 0.595283 0.371312 0.571254
240 1 0.757441 0.300953 0.541602
255 1 0.76283 0.453323 0.533287
334 1 0.718943 0.281431 0.656783
357 1 0.793043 0.385281 0.63979
259 1 0.894599 0.393722 0.51417
338 1 0.912715 0.324155 0.600277
244 1 0.96929 0.51214 0.497493
248 1 0.19899 0.488333 0.490331
263 1 0.135639 0.602685 0.521918
342 1 0.128732 0.498923 0.58456
361 1 0.0221072 0.567811 0.583008
365 1 0.23252 0.554778 0.583696
252 1 0.403366 0.491962 0.497566
267 1 0.276037 0.599583 0.467824
346 1 0.328027 0.482755 0.627662
369 1 0.435888 0.577702 0.577302
256 1 0.640213 0.467944 0.500229
271 1 0.540342 0.611792 0.498397
350 1 0.526793 0.503014 0.554114
373 1 0.626583 0.625575 0.601881
260 1 0.799598 0.579546 0.502988
275 1 0.663656 0.600124 0.496548
354 1 0.701107 0.52456 0.594526
377 1 0.758617 0.633719 0.601079
279 1 0.906204 0.625586 0.473812
358 1 0.877318 0.499489 0.578545
264 1 0.030811 0.625436 0.478704
268 1 0.21203 0.700641 0.504682
283 1 0.112162 0.767936 0.474141
362 1 0.109549 0.750627 0.617742
381 1 0.0147548 0.813282 0.58662
385 1 0.230117 0.801818 0.554407
272 1 0.380085 0.690305 0.444434
287 1 0.344427 0.798556 0.495033
366 1 0.349457 0.689115 0.56311
389 1 0.404368 0.788513 0.610874
276 1 0.611904 0.711551 0.514993
291 1 0.491681 0.797576 0.518004
370 1 0.462823 0.688555 0.645583
393 1 0.589969 0.797695 0.61631
280 1 0.762635 0.702249 0.503399
295 1 0.708729 0.812531 0.499638
374 1 0.714836 0.740477 0.607857
397 1 0.804705 0.836317 0.5999
299 1 0.847785 0.808536 0.490743
378 1 0.888189 0.674285 0.586357
284 1 -0.000102004 0.917806 0.507512
288 1 0.170947 0.87073 0.4815
382 1 0.112826 0.913128 0.600081
292 1 0.4032 0.897788 0.507859
386 1 0.324064 0.914136 0.612406
296 1 0.569107 0.898427 0.524286
390 1 0.462798 0.929001 0.598673
300 1 0.797982 0.923043 0.514834
394 1 0.675695 0.887449 0.57755
398 1 0.902636 0.886799 0.594237
303 1 0.0713791 0.992541 0.700195
304 1 0.968795 0.0901203 0.717904
308 1 0.227499 0.0551717 0.684534
323 1 0.0559996 0.206979 0.687364
401 1 0.971476 0.980649 0.780431
402 1 0.130975 0.0829617 0.793835
405 1 0.191324 0.976538 0.816352
421 1 0.968853 0.211081 0.790731
425 1 0.178776 0.205771 0.765738
307 1 0.31936 0.0170769 0.756528
312 1 0.397826 0.141622 0.664245
327 1 0.308498 0.248344 0.676895
406 1 0.298155 0.154048 0.763303
409 1 0.427104 0.97571 0.809237
429 1 0.402927 0.256081 0.772989
311 1 0.519628 0.0351698 0.693063
316 1 0.629092 0.114132 0.70253
331 1 0.517346 0.200304 0.711976
410 1 0.45816 0.111314 0.776556
413 1 0.599873 0.0291394 0.813645
433 1 0.620719 0.229811 0.793621
315 1 0.704673 0.0173371 0.729482
320 1 0.80865 0.0925985 0.693249
335 1 0.736959 0.184626 0.730664
414 1 0.737326 0.0979621 0.820655
417 1 0.81153 0.00503967 0.810506
437 1 0.823776 0.208125 0.813675
319 1 0.871991 0.984779 0.708257
339 1 0.929142 0.21064 0.658127
418 1 0.88701 0.113823 0.814029
324 1 0.0119493 0.332591 0.671412
328 1 0.184303 0.317332 0.695096
343 1 0.0966564 0.426158 0.739629
422 1 0.0837855 0.293642 0.783494
441 1 0.983159 0.391968 0.796392
445 1 0.189427 0.377533 0.812346
332 1 0.407085 0.330326 0.653975
347 1 0.307509 0.377929 0.706501
426 1 0.275027 0.289237 0.808558
449 1 0.452587 0.387967 0.786034
336 1 0.578967 0.325211 0.724615
351 1 0.547186 0.419137 0.672188
430 1 0.504111 0.275799 0.827495
453 1 0.568029 0.40367 0.839739
340 1 0.84922 0.285755 0.698943
355 1 0.693787 0.406345 0.704598
434 1 0.703932 0.3069 0.775713
457 1 0.816643 0.414984 0.776173
359 1 0.911552 0.437749 0.687145
438 1 0.886712 0.306824 0.802454
344 1 0.0114874 0.504966 0.69518
348 1 0.188825 0.486493 0.695495
363 1 0.146925 0.628572 0.643274
442 1 0.0421477 0.496864 0.817856
461 1 0.970402 0.589354 0.771976
465 1 0.174919 0.660509 0.77648
352 1 0.396101 0.536013 0.719881
367 1 0.273844 0.607856 0.688161
446 1 0.314903 0.505046 0.806598
469 1 0.400465 0.604968 0.817997
356 1 0.626178 0.499441 0.684881
371 1 0.53149 0.582826 0.666594
450 1 0.546814 0.510391 0.770541
473 1 0.596136 0.610102 0.802562
360 1 0.798044 0.500786 0.688967
375 1 0.713265 0.615428 0.729336
454 1 0.679708 0.500899 0.794835
477 1 0.848485 0.592593 0.787991
379 1 0.907691 0.575131 0.670787
458 1 0.90914 0.494292 0.81109
364 1 0.988599 0.669232 0.676776
368 1 0.224075 0.727043 0.687839
383 1 0.127663 0.798359 0.72979
462 1 0.0640628 0.710747 0.786745
481 1 0.0211213 0.835333 0.775002
485 1 0.173076 0.766957 0.843227
372 1 0.356516 0.694033 0.715134
387 1 0.305694 0.814965 0.6905
466 1 0.287889 0.710956 0.818883
489 1 0.386907 0.798793 0.793324
376 1 0.627577 0.70295 0.686861
391 1 0.491004 0.812462 0.699533
470 1 0.519528 0.691605 0.760608
493 1 0.588758 0.789537 0.846778
380 1 0.809734 0.699822 0.706081
395 1 0.676116 0.809901 0.722613
474 1 0.686524 0.710764 0.798418
497 1 0.809069 0.808761 0.793112
399 1 0.879497 0.817473 0.689062
478 1 0.928399 0.732125 0.761764
384 1 0.974195 0.88898 0.688911
388 1 0.159562 0.908908 0.716461
482 1 0.0933059 0.922392 0.825127
392 1 0.386441 0.916905 0.716736
486 1 0.286089 0.876008 0.803723
396 1 0.568101 0.926325 0.6843
490 1 0.503659 0.893678 0.854537
400 1 0.768127 0.899569 0.732252
494 1 0.611715 0.900371 0.79646
498 1 0.895696 0.891276 0.794263
403 1 0.118491 0.0505375 0.91149
404 1 0.00154993 0.0761811 0.854443
408 1 0.237356 0.1032 0.884443
423 1 0.12999 0.183059 0.886187
407 1 0.318289 -0.00198015 0.871063
412 1 0.3708 0.125603 0.862301
427 1 0.279549 0.215559 0.920528
411 1 0.507413 0.0473261 0.872495
416 1 0.578618 0.146143 0.85888
431 1 0.47645 0.236152 0.956891
415 1 0.679416 0.96843 0.87925
420 1 0.806076 0.102867 0.90862
435 1 0.702107 0.195604 0.886494
419 1 0.919744 0.982706 0.894965
439 1 0.962802 0.181547 0.922265
424 1 0.953157 0.299976 0.919634
428 1 0.187793 0.331086 0.911156
443 1 0.0790568 0.366244 0.874459
432 1 0.385019 0.31074 0.882888
447 1 0.285356 0.437555 0.918814
436 1 0.609399 0.288623 0.908405
451 1 0.485644 0.376967 0.91982
440 1 0.787776 0.321869 0.863223
455 1 0.678546 0.3824 0.877074
459 1 0.858141 0.372849 0.953086
444 1 0.963303 0.485875 0.92766
448 1 0.163685 0.491318 0.847481
463 1 0.10848 0.599046 0.849915
452 1 0.394899 0.486951 0.888687
467 1 0.319364 0.62296 0.894591
456 1 0.636983 0.494374 0.91594
471 1 0.517131 0.575297 0.887352
460 1 0.784735 0.496694 0.876938
475 1 0.730727 0.623167 0.867315
479 1 0.874962 0.577481 0.901298
464 1 0.933983 0.701077 0.89306
468 1 0.205982 0.664338 0.926909
483 1 0.0800505 0.808253 0.882046
472 1 0.389559 0.712414 0.961262
487 1 0.322274 0.788194 0.905121
476 1 0.585685 0.695839 0.924395
491 1 0.481562 0.757553 0.886212
480 1 0.774101 0.728168 0.895942
495 1 0.702112 0.842446 0.868022
499 1 0.886146 0.810569 0.90682
484 1 0.992879 0.892614 0.885148
488 1 0.204503 0.871211 0.8859
492 1 0.368348 0.911826 0.940703
496 1 0.592119 0.88521 0.925645
500 1 0.823767 0.909188 0.888022
