ITEM: TIMESTEP
250
ITEM: NUMBER OF ATOMS
4000
ITEM: BOX BOUNDS pp pp pp
0.0000000000000000e+00 1.6757672110741936e+01
0.0000000000000000e+00 1.6757672110741936e+01
0.0000000000000000e+00 1.6757672110741936e+01
ITEM: ATOMS id type x y z xu yu zu vx vy vz
1 1 0.15354 16.5464 16.7377 0.15354 -0.211309 -0.0199633 -0.689304 -0.68525 -0.215683
2 1 0.580666 0.845672 16.6959 0.580666 0.845672 -0.0617983 0.376639 -0.533354 -0.970664
3 1 1.01542 16.6114 0.655559 1.01542 -0.146297 0.655559 0.45028 -1.28132 -0.473221
4 1 0.0122046 0.624058 0.873677 0.0122046 0.624058 0.873677 0.504237 1.54945 0.44008
5 1 1.84963 16.6809 16.7063 1.84963 -0.0767235 -0.0514058 -0.606555 0.233216 0.763341
6 1 2.61847 0.980362 16.7507 2.61847 0.980362 -0.00697517 0.501861 0.286283 0.158199
7 1 2.37611 0.206284 0.718557 2.37611 0.206284 0.718557 -0.716156 0.482036 -0.0474621
8 1 1.55876 0.865504 0.649737 1.55876 0.865504 0.649737 0.949834 -0.0727168 -1.01615
9 1 3.45752 0.0859661 0.0677425 3.45752 0.0859661 0.0677425 0.0473244 -0.0297929 0.73363
10 1 4.25996 0.790868 0.174573 4.25996 0.790868 0.174573 0.442164 -9.85589e-06 0.0991064
11 1 4.22555 0.00467983 0.811766 4.22555 0.00467983 0.811766 -1.23453 0.274428 1.00099
12 1 3.36972 0.962437 0.743441 3.36972 0.962437 0.743441 -1.01783 0.264092 0.666085
13 1 5.1151 16.5459 0.00730322 5.1151 -0.211788 0.00730322 0.592528 0.695848 -0.501564
14 1 5.73738 0.763993 0.00656971 5.73738 0.763993 0.00656971 -0.242905 -0.104225 0.138842
15 1 5.98395 16.6162 0.777651 5.98395 -0.141493 0.777651 -0.412581 0.106974 0.0771082
16 1 5.07466 0.661211 0.822366 5.07466 0.661211 0.822366 -0.495308 -1.17027 0.350991
17 1 6.83267 16.7484 16.7547 6.83267 -0.00929652 -0.00298005 0.187411 -0.0703701 0.318065
18 1 7.5287 0.840471 16.7258 7.5287 0.840471 -0.0318367 -0.409365 -0.217576 -1.99036
19 1 7.60327 16.679 0.722403 7.60327 -0.0786981 0.722403 -0.434395 0.521644 -0.221873
20 1 6.68929 1.02241 0.566295 6.68929 1.02241 0.566295 -0.131106 0.670833 0.775773
21 1 8.34438 16.7572 16.4964 8.34438 -0.000512366 -0.261314 1.42962 0.032482 0.72154
24 1 8.36748 0.745173 0.811463 8.36748 0.745173 0.811463 -0.775142 0.592665 0.194454
22 1 9.0636 0.924888 16.4907 9.0636 0.924888 -0.266962 1.00653 0.719948 -1.55686
23 1 9.14887 0.0461358 0.622756 9.14887 0.0461358 0.622756 1.11343 -0.521741 -0.0690885
25 1 10.1032 16.6736 16.665 10.1032 -0.0841099 -0.0926424 -1.91257 0.403234 -0.286494
28 1 9.97171 0.696714 0.727937 9.97171 0.696714 0.727937 0.473003 -1.04169 -0.995739
26 1 11.0796 0.637403 0.085882 11.0796 0.637403 0.085882 -0.244156 0.581086 -0.698142
27 1 10.8805 16.7065 0.811882 10.8805 -0.0511835 0.811882 -1.54061 -0.459452 -0.344149
29 1 11.9523 0.00658188 16.5584 11.9523 0.00658188 -0.199276 0.33697 0.381412 0.54942
32 1 11.8709 0.677625 0.854382 11.8709 0.677625 0.854382 0.553469 1.10945 -0.076338
30 1 12.7951 0.887932 0.131704 12.7951 0.887932 0.131704 -0.32338 -1.1028 -0.785374
31 1 12.6437 16.6613 0.888952 12.6437 -0.0964065 0.888952 0.0513615 0.796833 0.564249
33 1 13.4911 0.0469514 0.053094 13.4911 0.0469514 0.053094 0.200891 -0.504475 0.658709
36 1 13.5491 0.988547 0.975915 13.5491 0.988547 0.975915 -0.150277 -0.676918 -1.33704
34 1 14.3039 0.919878 16.6163 14.3039 0.919878 -0.141414 1.238 0.422175 -0.0566789
35 1 14.2576 0.153924 0.73648 14.2576 0.153924 0.73648 -0.37968 -0.164048 -0.312152
37 1 15.1354 0.0992565 16.668 15.1354 0.0992565 -0.0896525 0.2129 0.401034 -1.82514
40 1 15.0733 0.960376 0.744106 15.0733 0.960376 0.744106 -0.582347 -0.608873 0.0383027
38 1 16.0678 0.739564 16.7245 16.0678 0.739564 -0.0331231 0.585832 -0.857126 0.293573
39 1 15.8749 16.7204 0.755668 15.8749 -0.0373186 0.755668 0.130901 0.58382 -0.677938
41 1 16.7493 1.74551 16.6181 -0.00834741 1.74551 -0.139574 0.546231 0.559023 -0.268557
42 1 0.914372 2.26639 16.6155 0.914372 2.26639 -0.142189 -0.67652 0.285416 0.279278
43 1 0.715654 1.7182 0.767231 0.715654 1.7182 0.767231 0.140025 -0.220983 0.2399
44 1 0.0764141 2.5533 0.593271 0.0764141 2.5533 0.593271 -1.19457 1.15558 -1.07377
45 1 1.78909 1.63557 16.5679 1.78909 1.63557 -0.189775 -0.410264 0.456083 -0.656903
46 1 2.51655 2.45225 16.6907 2.51655 2.45225 -0.0669696 0.0345197 0.887097 -0.870076
47 1 2.3304 1.59445 0.805471 2.3304 1.59445 0.805471 -0.763575 0.0273781 0.415928
48 1 1.73375 2.62039 0.855776 1.73375 2.62039 0.855776 1.30986 -0.838526 0.523581
49 1 3.50582 1.69366 0.068867 3.50582 1.69366 0.068867 0.0462736 -0.0521546 0.682205
50 1 4.32064 2.42501 16.7119 4.32064 2.42501 -0.045805 0.996909 -0.554665 -0.191216
51 1 4.32511 1.6619 0.844535 4.32511 1.6619 0.844535 0.304204 0.14177 0.7758
52 1 3.34769 2.52687 0.69929 3.34769 2.52687 0.69929 0.449215 -0.427303 0.0469111
53 1 4.93219 1.54355 16.7107 4.93219 1.54355 -0.0469482 0.185047 -1.63385 -0.481523
54 1 5.75288 2.55364 0.014191 5.75288 2.55364 0.014191 0.113101 0.0428267 0.329174
55 1 5.7745 1.79533 0.759305 5.7745 1.79533 0.759305 0.871872 0.141345 -0.455039
56 1 4.96448 2.58451 0.779689 4.96448 2.58451 0.779689 0.652733 -0.772252 -1.12874
57 1 6.49966 1.86073 16.6881 6.49966 1.86073 -0.0695459 0.194051 0.15422 0.376597
58 1 7.45417 2.45771 16.6421 7.45417 2.45771 -0.115591 0.521135 0.274329 -0.857731
59 1 7.51942 1.72164 0.728811 7.51942 1.72164 0.728811 -1.10758 0.620424 0.166925
60 1 6.55959 2.6462 0.789802 6.55959 2.6462 0.789802 -0.158252 -0.340384 -0.86376
61 1 8.33181 1.80006 16.6773 8.33181 1.80006 -0.080398 0.0359784 0.352513 -0.284191
64 1 8.41567 2.44432 0.689188 8.41567 2.44432 0.689188 0.748375 1.84254 0.418198
62 1 9.13055 2.50134 0.0134944 9.13055 2.50134 0.0134944 -1.18185 0.378905 0.748542
63 1 9.2423 1.67724 0.700776 9.2423 1.67724 0.700776 -0.848478 -0.450353 0.98211
65 1 10.1018 1.72408 0.133216 10.1018 1.72408 0.133216 0.57808 0.891627 1.031
68 1 9.96286 2.58179 0.785297 9.96286 2.58179 0.785297 -0.840667 0.364211 0.134859
66 1 10.8519 2.55857 0.00897579 10.8519 2.55857 0.00897579 -0.0735951 2.04001 -0.474486
67 1 11.1256 1.60853 0.765492 11.1256 1.60853 0.765492 0.266126 0.0111335 -0.674973
69 1 11.7277 1.59179 16.6765 11.7277 1.59179 -0.0812121 -0.471081 1.27824 0.0916455
72 1 11.8591 2.56959 0.937422 11.8591 2.56959 0.937422 0.927359 1.11681 1.36299
70 1 12.474 2.51348 16.7346 12.474 2.51348 -0.0230992 -0.647985 -0.691222 0.767876
71 1 12.3701 1.72124 0.756686 12.3701 1.72124 0.756686 0.0887615 -0.273889 -0.834676
73 1 13.3766 1.83306 16.6205 13.3766 1.83306 -0.137188 0.0299368 0.261263 0.0852836
76 1 13.3135 2.40225 0.7006 13.3135 2.40225 0.7006 -0.714503 0.270234 0.122178
74 1 14.298 2.56361 16.7006 14.298 2.56361 -0.0570423 0.59425 -1.27227 0.292692
75 1 14.2727 1.88659 0.752311 14.2727 1.88659 0.752311 0.849176 0.760617 -0.25537
77 1 15.046 1.78317 16.6078 15.046 1.78317 -0.149913 0.707476 -0.526447 0.0326082
80 1 15.1121 2.64237 0.90776 15.1121 2.64237 0.90776 0.19666 -0.0578399 -0.283618
78 1 15.8492 2.43103 16.63 15.8492 2.43103 -0.127679 0.499631 0.489596 1.71717
79 1 16.0281 1.73787 0.666123 16.0281 1.73787 0.666123 0.480436 0.0569125 0.0524511
81 1 0.225824 3.38739 16.5635 0.225824 3.38739 -0.194179 0.286179 -0.36396 -0.708521
82 1 0.802636 4.29841 16.5265 0.802636 4.29841 -0.231181 0.0196013 -0.905365 -0.242393
83 1 0.791888 3.28939 0.667042 0.791888 3.28939 0.667042 -0.424723 -1.28319 0.270364
84 1 0.267007 4.22074 0.648634 0.267007 4.22074 0.648634 0.0892428 1.41789 -0.127587
85 1 1.73735 3.48329 16.5148 1.73735 3.48329 -0.242852 -0.0701975 -1.43885 -0.110917
86 1 2.65218 4.22992 16.6972 2.65218 4.22992 -0.0604688 0.238482 0.907434 -0.094074
87 1 2.5545 3.26532 0.625845 2.5545 3.26532 0.625845 0.557234 -1.52196 0.437407
88 1 1.41552 4.23893 0.71285 1.41552 4.23893 0.71285 -0.38854 0.227844 -0.919409
89 1 3.51183 3.39241 16.6398 3.51183 3.39241 -0.117875 0.246645 0.796635 -0.545491
90 1 4.25481 4.23479 16.6769 4.25481 4.23479 -0.0807773 -0.237692 -2.13546 0.185089
91 1 4.1161 3.3182 0.821069 4.1161 3.3182 0.821069 0.128652 -0.351638 0.720207
92 1 3.41184 4.04031 0.694193 3.41184 4.04031 0.694193 0.72386 0.0218728 0.984934
93 1 5.06084 3.36923 0.00547529 5.06084 3.36923 0.00547529 0.0745945 -0.160606 0.185108
94 1 5.83212 4.28277 16.7276 5.83212 4.28277 -0.0300318 0.845267 0.377869 -1.46492
95 1 5.83078 3.43537 0.874853 5.83078 3.43537 0.874853 -0.618101 -0.269879 -0.213967
96 1 4.98842 4.29044 0.735072 4.98842 4.29044 0.735072 0.40818 0.247501 0.102008
97 1 6.60778 3.37702 16.72 6.60778 3.37702 -0.0376303 0.843221 -0.373382 0.358471
98 1 7.4444 4.27035 0.0384569 7.4444 4.27035 0.0384569 -0.789238 -0.3837 0.20226
99 1 7.64946 3.36109 0.640701 7.64946 3.36109 0.640701 -1.42324 0.0213993 0.841802
100 1 6.8096 4.11841 0.883139 6.8096 4.11841 0.883139 0.39972 0.736994 0.597627
101 1 8.33505 3.35896 16.5541 8.33505 3.35896 -0.203567 -0.48197 1.04089 0.832078
104 1 8.32329 4.24418 0.872117 8.32329 4.24418 0.872117 -0.434022 -0.474972 -0.372532
102 1 9.1812 4.36967 0.11135 9.1812 4.36967 0.11135 -0.998022 0.0868644 0.555457
103 1 9.21943 3.31787 0.828086 9.21943 3.31787 0.828086 -0.142259 0.302374 -0.0506173
105 1 9.96361 3.5641 0.0580397 9.96361 3.5641 0.0580397 -0.545734 0.736268 -1.42756
108 1 10.2832 4.03781 1.01419 10.2832 4.03781 1.01419 0.261306 1.37617 -0.0357168
106 1 10.9582 4.2227 16.7567 10.9582 4.2227 -0.000960415 -1.18027 -0.640063 0.0339797
107 1 11.1096 3.22109 0.826461 11.1096 3.22109 0.826461 -0.051585 1.02626 0.685121
109 1 11.7524 3.29119 16.4894 11.7524 3.29119 -0.268302 0.128665 0.136798 -0.37981
112 1 11.7517 4.26583 0.886535 11.7517 4.26583 0.886535 0.344497 -0.879606 -0.729737
110 1 12.4165 4.21181 16.6154 12.4165 4.21181 -0.142277 -0.866384 -0.848401 -0.0345154
111 1 12.4313 3.53666 0.633019 12.4313 3.53666 0.633019 1.04938 -1.12825 0.117091
113 1 13.3513 3.33267 0.0127356 13.3513 3.33267 0.0127356 -1.35721 -0.586429 0.456392
116 1 13.5185 4.21095 0.749757 13.5185 4.21095 0.749757 -0.511076 -0.618197 -0.258099
114 1 14.2141 4.31856 0.0327965 14.2141 4.31856 0.0327965 1.0139 -0.708993 0.467193
115 1 14.1318 3.07717 0.969922 14.1318 3.07717 0.969922 0.83427 -0.922418 0.191422
117 1 15.2918 3.41401 16.7501 15.2918 3.41401 -0.00760001 0.809569 -0.616967 -0.5412
120 1 14.7637 3.95357 0.872511 14.7637 3.95357 0.872511 0.406315 -0.831046 -0.394455
118 1 16.152 4.28808 16.563 16.152 4.28808 -0.194668 0.842939 0.0475487 0.423286
119 1 16.0938 3.40123 0.825009 16.0938 3.40123 0.825009 1.30481 0.725529 0.377747
121 1 0.0708771 5.02995 16.3535 0.0708771 5.02995 -0.404138 -0.0976559 -0.886406 0.439208
122 1 0.914564 5.68754 16.7055 0.914564 5.68754 -0.0521292 -0.011651 -0.194356 -0.363618
123 1 0.77462 5.11943 0.980313 0.77462 5.11943 0.980313 1.09249 0.322531 0.0564856
124 1 0.0114826 5.8344 1.04168 0.0114826 5.8344 1.04168 0.0911946 -0.228358 -0.259489
125 1 1.8187 4.95363 0.140802 1.8187 4.95363 0.140802 0.81576 -0.0699311 0.258161
126 1 2.51991 5.83297 0.150219 2.51991 5.83297 0.150219 -0.504588 -0.395704 0.338804
127 1 2.78661 4.99528 0.63921 2.78661 4.99528 0.63921 0.643834 1.2231 -0.524571
128 1 1.47676 5.94649 0.837184 1.47676 5.94649 0.837184 -0.348019 0.101254 -1.22372
129 1 3.41311 4.97812 16.5806 3.41311 4.97812 -0.177091 0.110003 0.811218 -0.0320152
130 1 4.18839 5.89925 16.6491 4.18839 5.89925 -0.108618 0.564002 -1.59245 0.750584
131 1 4.16181 4.99871 0.614335 4.16181 4.99871 0.614335 0.680701 1.20706 -0.31089
132 1 3.43776 5.85675 0.687329 3.43776 5.85675 0.687329 -0.495859 -1.07453 -1.44854
133 1 5.08555 5.04288 16.6237 5.08555 5.04288 -0.133977 -0.566155 0.188724 0.953191
134 1 5.86785 5.85389 16.6369 5.86785 5.85389 -0.120819 -0.249137 -0.216083 0.447317
135 1 5.98378 5.06765 0.889468 5.98378 5.06765 0.889468 0.773195 -0.028101 -1.16853
136 1 5.058 6.00527 0.656793 5.058 6.00527 0.656793 0.0105453 0.484884 -0.228923
137 1 6.61112 5.06525 16.5692 6.61112 5.06525 -0.188432 0.837943 -1.41717 -1.27378
138 1 7.52896 5.83169 16.7071 7.52896 5.83169 -0.0505313 0.209815 -0.119937 0.092025
139 1 7.44697 5.0707 0.892129 7.44697 5.0707 0.892129 -0.240962 0.498777 0.359937
140 1 6.67731 5.89724 0.986395 6.67731 5.89724 0.986395 -0.804578 0.0185833 -0.627904
141 1 8.31853 5.03905 0.0970395 8.31853 5.03905 0.0970395 -0.437247 -0.289775 -0.298505
144 1 8.49144 5.85681 1.03508 8.49144 5.85681 1.03508 -0.459303 -0.990736 0.379428
142 1 9.0668 5.74108 16.6001 9.0668 5.74108 -0.157533 0.527926 1.28822 -0.0687788
143 1 9.26199 4.96977 1.17534 9.26199 4.96977 1.17534 -0.437824 -0.00470191 0.157903
145 1 10.0189 5.05857 0.025169 10.0189 5.05857 0.025169 -1.79401 0.346642 -0.649023
148 1 10.0928 5.84324 0.666697 10.0928 5.84324 0.666697 -0.0242646 0.945146 0.768418
146 1 10.9473 5.82519 0.0462941 10.9473 5.82519 0.0462941 0.324816 -1.55675 -0.848956
147 1 10.8635 5.02476 0.81772 10.8635 5.02476 0.81772 -0.741327 0.0372894 -0.812496
149 1 11.6814 5.03839 0.0428358 11.6814 5.03839 0.0428358 -0.257237 1.68622 -0.22496
152 1 11.8748 5.82304 0.945272 11.8748 5.82304 0.945272 0.750464 -0.364479 -0.122316
150 1 12.6844 5.92139 0.213877 12.6844 5.92139 0.213877 0.261135 1.02048 0.457783
151 1 12.6688 4.92839 0.823701 12.6688 4.92839 0.823701 0.36154 0.511756 -0.372098
153 1 13.3539 4.95656 0.0428565 13.3539 4.95656 0.0428565 0.215484 -0.476448 0.263177
156 1 13.4943 5.85458 1.08254 13.4943 5.85458 1.08254 0.0637197 -0.840991 -0.120113
154 1 14.0727 5.81625 0.18687 14.0727 5.81625 0.18687 -0.055241 -0.940645 0.0901701
155 1 14.266 5.08413 0.987206 14.266 5.08413 0.987206 -0.322696 -1.04606 0.473481
157 1 15.1251 4.94633 0.188315 15.1251 4.94633 0.188315 0.0886785 0.2308 -0.582372
160 1 15.4476 5.79436 0.828664 15.4476 5.79436 0.828664 -0.158164 -0.34305 0.155698
158 1 15.9836 5.76085 16.7379 15.9836 5.76085 -0.0197309 0.853793 -1.41276 -0.372526
159 1 16.2858 5.04067 0.73699 16.2858 5.04067 0.73699 0.758863 -0.284769 0.659774
161 1 16.7425 6.47747 16.733 -0.0152163 6.47747 -0.0247188 0.596379 -0.284402 0.599573
162 1 0.916162 7.41608 16.6671 0.916162 7.41608 -0.090608 0.0509664 -0.267477 1.5139
163 1 0.786962 6.69352 0.665181 0.786962 6.69352 0.665181 0.3242 0.407641 -0.0312921
164 1 0.0638604 7.51386 0.802003 0.0638604 7.51386 0.802003 -0.299973 0.241784 0.0209245
165 1 1.77792 6.80116 16.6823 1.77792 6.80116 -0.0753909 0.569831 -1.73408 -0.1522
166 1 2.75632 7.59765 0.133553 2.75632 7.59765 0.133553 0.945174 -0.0481754 0.0542704
167 1 2.53673 6.78274 0.8208 2.53673 6.78274 0.8208 1.25748 -1.31717 -0.56508
168 1 1.56033 7.35958 0.715972 1.56033 7.35958 0.715972 -0.0434786 0.927617 1.22738
169 1 3.3783 6.71125 16.6906 3.3783 6.71125 -0.0670499 -0.844757 1.65062 0.774423
170 1 4.24132 7.69141 16.5623 4.24132 7.69141 -0.195344 0.852443 0.758681 0.273653
171 1 4.25184 6.77156 0.729105 4.25184 6.77156 0.729105 -0.148195 -1.21151 0.83175
172 1 3.54276 7.81518 0.95203 3.54276 7.81518 0.95203 -0.116581 0.633576 0.188109
173 1 4.95926 6.71522 16.5337 4.95926 6.71522 -0.223962 -1.01549 -0.248898 -0.350588
174 1 5.88904 7.44908 16.6808 5.88904 7.44908 -0.0768225 -0.741464 -0.315011 -0.148659
175 1 5.86393 6.65843 0.624511 5.86393 6.65843 0.624511 0.859712 -0.583627 -0.0465587
176 1 5.29501 7.57415 0.814443 5.29501 7.57415 0.814443 1.06395 -1.49105 -1.51666
177 1 6.71125 6.59546 16.7489 6.71125 6.59546 -0.00876043 0.321226 -1.25018 -0.889111
178 1 7.69932 7.49256 16.7303 7.69932 7.49256 -0.0273759 0.563734 1.27619 -0.312245
179 1 7.70508 6.63926 0.864777 7.70508 6.63926 0.864777 0.543387 0.590122 -0.11606
180 1 6.61776 7.48013 0.850638 6.61776 7.48013 0.850638 -0.299657 0.735668 0.560293
181 1 8.33377 6.41719 0.0463609 8.33377 6.41719 0.0463609 0.326742 0.0222143 0.476664
184 1 8.51006 7.38305 0.86448 8.51006 7.38305 0.86448 1.87311 2.3176 -0.87289
182 1 9.24008 7.29407 16.7512 9.24008 7.29407 -0.00650214 0.25836 0.363384 0.794538
183 1 9.22915 6.53478 0.669086 9.22915 6.53478 0.669086 -0.0858652 -0.792945 -0.0683896
185 1 9.9471 6.50985 16.5731 9.9471 6.50985 -0.184597 0.19158 -0.142088 -0.331511
188 1 9.97209 7.49787 0.709638 9.97209 7.49787 0.709638 0.217681 -0.350235 -0.463662
186 1 10.8246 7.67692 16.6302 10.8246 7.67692 -0.127463 -0.691335 1.40055 -0.144432
187 1 10.7672 6.61618 0.717689 10.7672 6.61618 0.717689 0.764132 -0.461201 1.06065
189 1 11.6857 6.63586 0.202635 11.6857 6.63586 0.202635 0.350984 0.0978308 0.347936
192 1 11.5127 7.43947 0.783219 11.5127 7.43947 0.783219 1.09687 1.17672 -1.48084
190 1 12.348 7.5929 16.6111 12.348 7.5929 -0.14656 0.115029 -0.194747 1.45077
191 1 12.6387 6.75189 0.813212 12.6387 6.75189 0.813212 -0.350443 0.422635 0.169889
193 1 13.5437 6.60029 0.0310093 13.5437 6.60029 0.0310093 -0.331641 0.771393 0.419518
196 1 13.3051 7.55887 0.59125 13.3051 7.55887 0.59125 -0.19809 0.348673 -0.170764
194 1 14.2253 7.49346 16.638 14.2253 7.49346 -0.119687 -0.330277 -0.659209 0.781336
195 1 14.3649 6.74364 0.798411 14.3649 6.74364 0.798411 0.0177958 -0.535635 0.599297
197 1 15.3227 6.73803 0.0513174 15.3227 6.73803 0.0513174 0.821819 0.194202 0.735316
200 1 15.1828 7.53215 0.830607 15.1828 7.53215 0.830607 1.02773 1.06884 -1.48045
198 1 16.1187 7.53294 16.707 16.1187 7.53294 -0.050625 -0.618975 -0.695144 -0.384053
199 1 16.1161 6.7508 0.806323 16.1161 6.7508 0.806323 -1.05643 0.543438 1.35785
201 1 0.129473 8.43383 16.6341 0.129473 8.43383 -0.12355 -0.657214 -0.0495395 0.246274
203 1 0.701637 8.39681 0.966181 0.701637 8.39681 0.966181 0.067655 -0.50403 -1.30328
205 1 1.69722 8.51947 0.040666 1.69722 8.51947 0.040666 -0.0729645 -0.60053 0.222485
207 1 2.45687 8.42284 0.786068 2.45687 8.42284 0.786068 0.47461 1.26673 0.193152
209 1 3.22809 8.56134 16.7194 3.22809 8.56134 -0.0382449 0.64015 0.279503 -0.347156
211 1 4.41276 8.40046 0.729301 4.41276 8.40046 0.729301 -1.0663 -0.809845 0.489827
213 1 5.20916 8.4112 0.0415793 5.20916 8.4112 0.0415793 -0.999256 -0.638949 -0.358435
215 1 5.92963 8.40962 1.01722 5.92963 8.40962 1.01722 1.3466 0.421869 0.725383
217 1 6.67209 8.36716 0.15469 6.67209 8.36716 0.15469 -1.20301 -0.472253 0.643876
219 1 7.58719 8.28297 0.779308 7.58719 8.28297 0.779308 -0.744404 0.40077 0.0830863
221 1 8.59219 8.24218 16.7146 8.59219 8.24218 -0.0430534 -0.821843 0.577859 -0.429837
223 1 9.27027 8.36564 0.790046 9.27027 8.36564 0.790046 1.27178 1.34198 -1.00959
225 1 10.0279 8.37257 0.086247 10.0279 8.37257 0.086247 0.624501 1.40345 0.85335
227 1 10.7764 8.2949 0.799875 10.7764 8.2949 0.799875 0.251101 0.752304 0.420214
229 1 11.6548 8.35237 0.155508 11.6548 8.35237 0.155508 0.523694 0.214577 -0.893237
231 1 12.4631 8.20921 0.811583 12.4631 8.20921 0.811583 -0.360236 -0.648057 0.786195
233 1 13.1854 8.43929 16.7417 13.1854 8.43929 -0.0159884 -0.427177 1.17238 1.76554
235 1 14.3033 8.4562 0.623902 14.3033 8.4562 0.623902 0.766633 0.28499 -0.092796
237 1 15.0944 8.52378 16.6319 15.0944 8.52378 -0.125739 0.829772 -0.827328 -0.359385
239 1 16.0387 8.25891 0.780195 16.0387 8.25891 0.780195 0.48241 0.752443 -0.369135
202 1 0.811993 9.18743 16.7054 0.811993 9.18743 -0.0522994 0.713578 -0.883942 -0.619806
204 1 16.6846 9.08692 0.625147 -0.0731192 9.08692 0.625147 -0.367057 -0.544876 -0.763876
241 1 0.179418 9.9549 16.6504 0.179418 9.9549 -0.107259 -0.319574 -0.0414059 1.39925
243 1 0.605053 9.9259 0.920819 0.605053 9.9259 0.920819 -0.633724 -0.213298 -1.51351
206 1 2.38333 9.31038 0.0531273 2.38333 9.31038 0.0531273 0.177195 -0.52145 0.0953358
208 1 1.45071 9.14919 0.81472 1.45071 9.14919 0.81472 2.0305 -0.296411 -0.178292
245 1 1.40145 10.0115 0.217123 1.40145 10.0115 0.217123 -0.403166 -0.49129 -0.627094
247 1 2.77611 10.0522 1.07089 2.77611 10.0522 1.07089 -0.13327 -0.778332 0.166961
210 1 4.06594 9.24817 16.7544 4.06594 9.24817 -0.00322374 0.0653962 0.579293 -0.40474
212 1 3.43206 9.13946 0.922979 3.43206 9.13946 0.922979 -0.205421 -0.124527 -0.705269
249 1 3.32985 10.0804 16.7269 3.32985 10.0804 -0.0307943 0.0089587 0.392472 0.81692
251 1 4.30242 10.1661 0.867354 4.30242 10.1661 0.867354 0.505347 0.455796 -1.07812
214 1 5.9418 9.24106 0.0067555 5.9418 9.24106 0.0067555 1.21873 -0.00023546 -0.0234243
216 1 5.15082 9.21524 0.846197 5.15082 9.21524 0.846197 -0.131539 -1.08941 -0.743335
253 1 4.88977 10.0162 0.0157846 4.88977 10.0162 0.0157846 0.0770444 1.22597 1.28381
255 1 5.99236 10.1504 0.892664 5.99236 10.1504 0.892664 0.821792 0.313611 -0.441468
218 1 7.78233 9.01008 16.6047 7.78233 9.01008 -0.152969 -0.71177 0.91961 -1.60726
220 1 6.77275 9.1002 1.04313 6.77275 9.1002 1.04313 -0.714212 -0.695328 -0.842688
257 1 6.90281 9.96929 16.7558 6.90281 9.96929 -0.00184891 1.31832 -2.17728 -0.316743
259 1 7.70273 10.015 0.872755 7.70273 10.015 0.872755 0.00901804 -0.603357 -1.5481
224 1 8.52894 9.20729 0.900292 8.52894 9.20729 0.900292 -0.159121 -0.0546005 -0.284841
261 1 8.49451 10.0545 0.0992223 8.49451 10.0545 0.0992223 -0.499424 1.07059 1.33767
222 1 9.2375 9.23489 16.7026 9.2375 9.23489 -0.0550724 -2.14131 -1.45849 0.264632
228 1 10.099 9.28307 0.816886 10.099 9.28307 0.816886 0.713833 -0.125936 -0.0631238
263 1 9.40351 10.1431 0.862197 9.40351 10.1431 0.862197 -0.375104 0.693209 -0.332545
265 1 10.1829 10.0028 16.7408 10.1829 10.0028 -0.0168577 -2.19412 -0.954975 0.496839
226 1 10.9994 9.27068 0.18435 10.9994 9.27068 0.18435 -0.637966 -0.300287 2.05957
232 1 11.8 9.21241 0.822834 11.8 9.21241 0.822834 0.982437 0.0044166 -0.174309
267 1 10.7872 10.1176 0.89939 10.7872 10.1176 0.89939 0.0906054 -0.889907 -0.536694
269 1 11.6355 10.0735 0.134619 11.6355 10.0735 0.134619 0.566433 0.638754 1.89491
230 1 12.4041 9.15099 16.7161 12.4041 9.15099 -0.0415996 0.976717 1.19296 1.0781
236 1 13.2357 9.16756 0.655591 13.2357 9.16756 0.655591 -0.399804 0.551764 -0.605245
271 1 12.4669 9.97054 0.809012 12.4669 9.97054 0.809012 0.249654 -0.372257 1.43985
273 1 13.3792 10.0971 0.0739532 13.3792 10.0971 0.0739532 -0.463246 -0.149856 -1.25596
234 1 14.1902 9.25416 0.0184236 14.1902 9.25416 0.0184236 0.186949 0.740905 -0.279388
240 1 15.2448 9.12801 0.818757 15.2448 9.12801 0.818757 1.18652 0.215201 -0.243737
275 1 13.9372 9.95116 0.940775 13.9372 9.95116 0.940775 0.788028 0.186534 -0.0301219
277 1 14.9438 10.0517 0.104197 14.9438 10.0517 0.104197 0.00187721 -1.46658 -0.797282
238 1 15.8808 9.2909 16.7411 15.8808 9.2909 -0.0165226 0.746731 -0.140351 -1.49041
279 1 16.1113 9.93574 0.834729 16.1113 9.93574 0.834729 -0.709553 -0.1089 -0.573544
242 1 1.00244 10.8915 16.5932 1.00244 10.8915 -0.164465 0.291216 -0.28754 -0.0083358
244 1 0.0529661 10.9041 0.657065 0.0529661 10.9041 0.657065 -0.720777 0.316953 -0.636095
281 1 0.190241 11.7402 0.00816302 0.190241 11.7402 0.00816302 -0.725601 -0.399102 0.683409
283 1 0.953333 11.5978 0.843897 0.953333 11.5978 0.843897 0.125598 0.753751 -0.274462
246 1 2.43168 10.6439 16.6833 2.43168 10.6439 -0.0743418 -0.382357 0.252006 -1.08315
248 1 1.78968 10.8532 0.993371 1.78968 10.8532 0.993371 1.02011 0.0664424 -1.10889
285 1 1.87968 11.5202 16.7338 1.87968 11.5202 -0.0238866 0.362496 1.15607 1.14468
287 1 2.49842 11.6354 0.969578 2.49842 11.6354 0.969578 -0.0903901 0.895887 1.32417
250 1 4.12336 10.9279 0.107852 4.12336 10.9279 0.107852 -1.05358 0.0836952 0.24047
252 1 3.40836 10.9232 1.02675 3.40836 10.9232 1.02675 1.39578 0.170041 -0.0588087
289 1 3.15168 11.5592 0.172179 3.15168 11.5592 0.172179 0.413972 -0.534851 -1.38754
291 1 4.14608 11.6256 0.980661 4.14608 11.6256 0.980661 0.192369 -1.286 -0.208132
254 1 5.98348 10.8593 0.0703874 5.98348 10.8593 0.0703874 0.00853742 0.752761 -0.182937
256 1 5.1638 10.7571 0.762471 5.1638 10.7571 0.762471 -0.354383 -0.596847 0.407376
293 1 5.03245 11.5952 0.0932513 5.03245 11.5952 0.0932513 -0.384824 -0.434026 0.282054
295 1 5.87873 11.6536 0.894038 5.87873 11.6536 0.894038 -1.43877 -0.119048 -1.07449
258 1 7.68539 11.0134 0.145033 7.68539 11.0134 0.145033 -0.120617 0.67785 -1.23478
260 1 6.86471 10.8555 0.790286 6.86471 10.8555 0.790286 0.797899 0.222302 0.585844
297 1 6.72878 11.8412 0.110934 6.72878 11.8412 0.110934 -0.0107512 1.48981 1.05024
299 1 7.70355 11.6468 0.968898 7.70355 11.6468 0.968898 0.113443 0.917413 0.219243
264 1 8.42299 10.8068 0.935561 8.42299 10.8068 0.935561 -1.38611 0.172853 0.875143
301 1 8.47017 11.8051 16.6575 8.47017 11.8051 -0.100131 0.241681 -0.723323 -0.0992178
262 1 9.3139 10.9302 16.7089 9.3139 10.9302 -0.0487808 -0.625616 0.233897 -0.647383
268 1 10.1244 10.9866 0.795304 10.1244 10.9866 0.795304 0.134906 1.32617 0.850144
303 1 9.29304 11.7814 0.727987 9.29304 11.7814 0.727987 -0.901131 -1.37689 0.388299
305 1 10.1477 11.852 16.6955 10.1477 11.852 -0.0621946 1.21386 -0.644341 0.118709
266 1 10.8983 11.0756 0.0332254 10.8983 11.0756 0.0332254 -0.0988425 1.12045 -0.0836057
272 1 11.7983 10.9762 0.722677 11.7983 10.9762 0.722677 -0.256998 -0.820334 -0.210751
307 1 10.9494 11.7733 0.891365 10.9494 11.7733 0.891365 -0.660451 0.184269 0.630583
309 1 12.0351 11.6915 16.7166 12.0351 11.6915 -0.0410628 -1.20804 1.68672 -0.626741
270 1 12.5521 10.8191 16.6902 12.5521 10.8191 -0.0674641 0.969252 0.447735 -0.114845
276 1 13.2113 10.7676 0.847127 13.2113 10.7676 0.847127 -0.442446 -0.0194111 -0.263193
311 1 12.6661 11.8048 0.943507 12.6661 11.8048 0.943507 -0.248733 1.10735 -0.0762463
313 1 13.3542 11.6948 16.68 13.3542 11.6948 -0.0777184 -0.357268 -0.221343 -0.488316
274 1 14.2094 10.8518 0.110966 14.2094 10.8518 0.110966 -0.254486 -0.549659 -0.071186
280 1 15.155 10.8004 0.822614 15.155 10.8004 0.822614 0.927447 -0.827275 0.481136
315 1 14.1748 11.6059 0.839803 14.1748 11.6059 0.839803 -0.263942 -0.763644 -0.815592
317 1 14.9695 11.8347 0.0542701 14.9695 11.8347 0.0542701 -0.108057 -1.02794 0.0411031
278 1 15.9006 10.9372 0.0449333 15.9006 10.9372 0.0449333 -0.92533 0.500162 -0.28131
319 1 15.8154 11.7151 0.78948 15.8154 11.7151 0.78948 0.239568 1.12184 0.201602
282 1 0.916733 12.4431 0.136994 0.916733 12.4431 0.136994 -0.499245 -0.495058 -0.186371
284 1 16.6627 12.7484 0.589903 -0.0949628 12.7484 0.589903 0.361487 -0.222227 -0.456968
321 1 0.0730584 13.5967 16.6103 0.0730584 13.5967 -0.147326 0.271346 0.98716 -0.178586
323 1 0.7907 13.3876 0.567634 0.7907 13.3876 0.567634 0.549691 1.00214 0.742243
286 1 2.60211 12.5186 0.0155804 2.60211 12.5186 0.0155804 0.571669 -0.20216 -0.766369
288 1 1.71319 12.3339 0.81 1.71319 12.3339 0.81 0.279923 -1.30659 -0.0198159
325 1 1.67477 13.3355 0.00146051 1.67477 13.3355 0.00146051 0.291309 -0.897574 -0.841138
327 1 2.5723 13.2323 0.813131 2.5723 13.2323 0.813131 -0.243152 0.289258 0.175071
290 1 4.18441 12.4173 16.6888 4.18441 12.4173 -0.0688427 -0.729982 0.866369 -0.317177
292 1 3.35738 12.4 0.869288 3.35738 12.4 0.869288 2.11182 0.624637 -0.827615
329 1 3.49096 13.2563 0.127117 3.49096 13.2563 0.127117 0.117846 1.22008 1.68177
331 1 4.2009 13.3015 0.855133 4.2009 13.3015 0.855133 -0.136446 0.706804 -0.442768
294 1 5.84768 12.4012 0.199799 5.84768 12.4012 0.199799 1.19624 -1.58712 -0.452943
296 1 5.04436 12.3868 1.01942 5.04436 12.3868 1.01942 -1.01311 0.263921 -0.861803
333 1 4.97893 13.2396 0.119195 4.97893 13.2396 0.119195 -0.687726 0.653983 -0.554131
335 1 5.81884 13.2274 0.889613 5.81884 13.2274 0.889613 -0.0691335 0.0204597 -0.634331
298 1 7.56507 12.5364 0.243158 7.56507 12.5364 0.243158 0.848518 -0.0240839 -0.557188
300 1 6.7526 12.4752 1.01313 6.7526 12.4752 1.01313 0.323514 -1.28621 1.29493
337 1 6.60171 13.1909 0.155599 6.60171 13.1909 0.155599 -1.33596 -0.605848 -0.627089
339 1 7.54049 13.5541 0.70927 7.54049 13.5541 0.70927 0.214902 0.410286 -0.269429
304 1 8.62485 12.5202 0.794965 8.62485 12.5202 0.794965 0.2058 -1.14874 0.378893
341 1 8.60837 13.4541 0.00498603 8.60837 13.4541 0.00498603 0.508376 1.05942 -0.900741
302 1 9.557 12.7274 16.7504 9.557 12.7274 -0.00732137 -0.161143 -0.342177 -0.449215
308 1 10.1326 12.7857 0.837783 10.1326 12.7857 0.837783 0.724494 0.632332 0.0819746
343 1 9.49295 13.493 0.769422 9.49295 13.493 0.769422 -0.074879 -0.225337 -0.39985
345 1 10.3114 13.5169 16.739 10.3114 13.5169 -0.0187098 0.107725 -0.36313 0.895921
306 1 11.0728 12.7068 16.7422 11.0728 12.7068 -0.0154976 -0.596365 1.65804 0.122707
312 1 11.9071 12.5602 0.735404 11.9071 12.5602 0.735404 0.315282 -0.128629 -1.77143
347 1 11.141 13.4405 0.86038 11.141 13.4405 0.86038 0.129506 0.375423 -0.22848
349 1 11.8903 13.488 0.102273 11.8903 13.488 0.102273 -0.3137 -0.188475 0.589302
310 1 12.8162 12.6916 0.0286331 12.8162 12.6916 0.0286331 0.325591 -0.477141 0.427493
316 1 13.504 12.5863 0.87214 13.504 12.5863 0.87214 -0.893535 1.18056 -0.157883
351 1 12.752 13.5168 0.841829 12.752 13.5168 0.841829 -0.759479 -0.659142 0.577414
353 1 13.7215 13.557 16.5768 13.7215 13.557 -0.180894 -1.33101 -0.0547899 1.15585
314 1 14.2866 12.5916 0.211218 14.2866 12.5916 0.211218 -0.161936 -0.162954 0.900622
320 1 15.1723 12.4728 0.958378 15.1723 12.4728 0.958378 0.314935 -0.182627 -0.295631
355 1 14.4466 13.4577 0.841963 14.4466 13.4577 0.841963 0.508017 0.507837 -0.377409
357 1 15.0919 13.4241 16.5903 15.0919 13.4241 -0.167378 0.918834 0.758081 -0.488913
318 1 15.747 12.4901 16.7392 15.747 12.4901 -0.0184758 -0.934988 0.778883 -0.0611347
359 1 15.8186 13.446 0.708412 15.8186 13.446 0.708412 -1.62739 -0.0985801 -1.23029
322 1 0.99614 14.1202 16.6632 0.99614 14.1202 -0.0945115 0.948882 -0.706417 -0.846073
324 1 0.139352 14.1938 0.751503 0.139352 14.1938 0.751503 0.398969 -0.949686 1.20052
361 1 0.00249186 15.0101 16.6615 0.00249186 15.0101 -0.0961854 -0.0905359 0.592424 1.17429
363 1 1.04577 14.9972 0.583167 1.04577 14.9972 0.583167 0.444047 -1.12389 -0.0211965
326 1 2.57427 14.0566 0.0480941 2.57427 14.0566 0.0480941 0.626047 0.376273 -0.395653
328 1 1.60326 14.1299 0.86472 1.60326 14.1299 0.86472 1.47434 -1.50447 0.38602
365 1 1.91879 15.014 16.6913 1.91879 15.014 -0.0663585 1.05556 -0.323723 0.846043
367 1 2.34171 15.0253 0.906536 2.34171 15.0253 0.906536 -0.870392 0.369528 1.29542
330 1 4.2162 14.0359 0.0503131 4.2162 14.0359 0.0503131 0.346409 -0.456895 -0.515927
332 1 3.24568 14.0494 0.869821 3.24568 14.0494 0.869821 1.18377 0.692879 -0.567475
369 1 3.25783 14.957 0.298532 3.25783 14.957 0.298532 -0.447478 -0.11843 1.24155
371 1 4.36766 14.8877 0.902297 4.36766 14.8877 0.902297 -0.612806 -0.361448 -0.736641
334 1 5.70341 14.0455 0.0283075 5.70341 14.0455 0.0283075 -1.28275 -2.31291 -0.572547
336 1 5.0526 13.9991 0.992844 5.0526 13.9991 0.992844 -1.21207 -1.04999 1.29506