ITEM: TIMESTEP
150
ITEM: NUMBER OF ATOMS
500
ITEM: BOX BOUNDS pp pp pp
0.0000000000000000e+00 8.3979809569125372e+00
0.0000000000000000e+00 8.3979809569125372e+00
0.0000000000000000e+00 8.3979809569125372e+00
ITEM: ATOMS id type xs ys zs
1 1 1.00334 0.987242 0.971516
2 1 0.0471819 0.0899752 0.0283329
3 1 0.0935271 0.979586 0.0514464
4 1 0.983639 0.16052 0.140798
5 1 0.215668 0.0873923 0.0413998
8 1 0.234203 0.0474142 0.164744
21 1 -0.00530528 0.239463 0.00826601
23 1 0.1315 0.109575 0.117901
25 1 0.134609 0.209294 0.0259308
101 1 0.989853 0.940368 0.230913
102 1 0.0675222 0.00981816 0.188421
105 1 0.180314 0.964626 0.224268
121 1 0.0799555 0.144178 0.235765
125 1 0.208958 0.160137 0.213883
6 1 0.384345 0.121409 0.986798
7 1 0.326255 0.0325212 0.0637018
9 1 0.380241 0.983244 0.965066
12 1 0.461551 0.0724394 0.063324
27 1 0.273001 0.170209 0.0905796
29 1 0.4191 0.231248 0.00923674
106 1 0.32662 0.121354 0.242276
109 1 0.391391 0.0279726 0.17156
129 1 0.39314 0.154321 0.132483
10 1 0.541777 0.141018 0.98774
11 1 0.512332 0.992608 0.136302
13 1 0.498561 0.954185 0.00276918
16 1 0.59254 0.0872172 0.105881
31 1 0.501824 0.203236 0.0931903
33 1 0.655925 0.251205 0.018443
110 1 0.499685 0.115471 0.170151
113 1 0.615766 0.951955 0.223908
133 1 0.648549 0.172771 0.166593
14 1 0.665213 0.116257 0.890412
15 1 0.641598 0.99224 0.982054
17 1 0.802268 0.98768 0.958671
20 1 0.830826 0.0152686 0.0670829
35 1 0.692637 0.109962 0.0253947
37 1 0.863593 0.272547 0.978536
114 1 0.711674 0.0160523 0.13176
117 1 0.812913 0.948785 0.167039
137 1 0.766343 0.134317 0.152222
18 1 0.919731 0.10606 0.0291181
19 1 0.970576 0.0198565 0.118
39 1 0.824262 0.167593 0.0580204
118 1 0.890161 0.0923918 0.152994
22 1 0.125582 0.328887 0.0536759
24 1 0.0537499 0.264309 0.121325
28 1 0.182276 0.250813 0.132517
41 1 1.0029 0.375932 0.0381546
43 1 0.116567 0.373897 0.17331
45 1 0.184141 0.440234 0.0271996
122 1 0.152227 0.277933 0.254419
141 1 0.969381 0.355081 0.165746
145 1 0.220654 0.423977 0.154287
26 1 0.273139 0.326173 0.0607844
32 1 0.390584 0.277589 0.108932
47 1 0.349484 0.407941 0.181199
49 1 0.39386 0.36199 0.993357
126 1 0.262707 0.30511 0.199216
149 1 0.378831 0.401379 0.293519
30 1 0.507684 0.34964 0.0453751
36 1 0.584595 0.284665 0.142006
51 1 0.497107 0.370589 0.164123
53 1 0.619026 0.387667 0.977104
130 1 0.486369 0.25559 0.223167
153 1 0.604034 0.392119 0.219836
34 1 0.731333 0.343398 0.971987
40 1 0.765493 0.270764 0.084709
55 1 0.672737 0.347992 0.0788872
57 1 0.728747 0.465459 1.0022
134 1 0.713327 0.273296 0.196606
157 1 0.827492 0.301906 0.190523
38 1 0.894134 0.245544 0.114422
59 1 0.879617 0.353442 0.0528505
138 1 0.87318 0.171367 0.232227
42 1 0.0580104 0.535909 0.999374
44 1 1.00416 0.464696 0.126431
48 1 0.245401 0.536208 0.144044
61 1 0.939472 0.554858 1.00115
63 1 0.138443 0.526904 0.0816023
65 1 0.20222 0.539587 0.962391
142 1 0.114377 0.492884 0.210153
161 1 0.99305 0.59736 0.220869
165 1 0.183301 0.635068 0.182602
46 1 0.318988 0.45413 0.0249484
52 1 0.444845 0.478125 0.0991822
67 1 0.35769 0.572556 0.12412
69 1 0.399154 0.531804 0.99758
146 1 0.312697 0.497486 0.261588
169 1 0.429698 0.610186 0.216504
50 1 0.517858 0.463631 0.944132
56 1 0.549676 0.47042 0.0489665
71 1 0.467659 0.619064 0.064907
73 1 0.587814 0.599247 0.00981419
150 1 0.446805 0.471413 0.213312
173 1 0.554391 0.532423 0.150609
54 1 0.705583 0.62264 1.01123
60 1 0.775858 0.417493 0.111665
75 1 0.668284 0.61106 0.132668
77 1 0.824539 0.604155 -0.00478454
154 1 0.6579 0.480652 0.0855615
177 1 0.761417 0.541321 0.122543
58 1 0.852029 0.491676 0.0691063
79 1 0.921926 0.591543 0.113121
158 1 0.906995 0.494146 0.186673
62 1 0.104681 0.730073 0.984975
64 1 0.0275743 0.659129 0.103935
68 1 0.132724 0.684621 0.0866
81 1 -0.00318073 0.785392 0.996609
83 1 0.107933 0.868504 0.117604
85 1 0.174495 0.81216 0.0405829
162 1 0.108779 0.745136 0.185257
181 1 0.985373 0.758544 0.265398
185 1 0.215613 0.828571 0.171436
66 1 0.218463 0.614441 0.0410947
72 1 0.370137 0.691933 0.126208
87 1 0.249709 0.727849 0.0715895
89 1 0.416744 0.776813 0.0127023
166 1 0.326985 0.72196 0.22427
189 1 0.345188 0.806232 0.147073
70 1 0.556133 0.726225 0.0199889
76 1 0.602266 0.790064 0.129342
91 1 0.477678 0.775487 0.155805
93 1 0.668193 0.751412 0.945884
170 1 0.535273 0.654623 0.147787
193 1 0.599219 0.797626 0.277858
74 1 0.689281 0.740262 0.0647726
80 1 0.810016 0.714214 0.0836623
95 1 0.721756 0.858378 0.0919152
97 1 0.8698 0.7877 0.982071
174 1 0.704842 0.774215 0.177505
197 1 0.80843 0.813635 0.166434
78 1 0.938453 0.687035 0.023268
99 1 0.922703 0.819667 0.104181
178 1 0.819277 0.673579 0.209454
82 1 0.133714 1.01479 0.945802
84 1 -0.0199565 0.904365 0.0589977
88 1 0.215426 0.956668 0.0311746
182 1 0.0922676 0.865094 0.244759
86 1 0.291703 0.841457 0.056863
92 1 0.389578 0.906082 0.0482299
186 1 0.317562 0.936875 0.187817
90 1 0.514611 0.846322 0.0538696
96 1 0.604052 0.907702 0.101977
190 1 0.432221 0.90057 0.183324
94 1 0.731922 0.854986 0.963668
100 1 0.829187 0.887457 0.0418868
194 1 0.714013 0.881736 0.227444
98 1 0.925781 0.905911 0.927913
198 1 0.900067 0.879706 0.214847
103 1 0.0925337 0.956646 0.344611
104 1 0.0124549 0.0580087 0.299019
108 1 0.252921 0.115441 0.340852
123 1 0.139929 0.20948 0.351672
201 1 0.0239667 -0.00863527 0.440719
202 1 0.125362 0.0840473 0.334986
205 1 0.250369 0.939289 0.521177
221 1 0.984751 0.187062 0.331449
225 1 0.170596 0.184221 0.480243
107 1 0.296948 0.975039 0.31706
112 1 0.371789 0.087434 0.361661
127 1 0.372678 0.253246 0.254015
206 1 0.240536 0.0881814 0.457626
209 1 0.383196 0.976737 0.437283
229 1 0.375276 0.181627 0.430368
111 1 0.505456 0.0248321 0.262862
116 1 0.592302 0.133454 0.265898
131 1 0.454131 0.162181 0.29818
210 1 0.494909 0.0926041 0.394823
213 1 0.571708 0.987916 0.374146
233 1 0.587923 0.204128 0.408388
115 1 0.721119 0.997632 0.274291
120 1 0.810414 0.0718137 0.255781
135 1 0.707869 0.148386 0.290888
214 1 0.660819 0.106528 0.406836
217 1 0.769943 0.0330598 0.385513
237 1 0.816393 0.256353 0.47449
119 1 0.897545 0.00954213 0.304108
139 1 0.99138 0.24662 0.232208
218 1 0.863011 0.121522 0.368471
124 1 0.0561583 0.380822 0.2764
128 1 0.274888 0.259182 0.32261
143 1 0.137684 0.415487 0.36565
222 1 0.134971 0.302539 0.421405
241 1 0.0286663 0.445322 0.392383
245 1 0.229834 0.382497 0.438565
132 1 0.460743 0.260787 0.378579
147 1 0.24132 0.382463 0.293265
226 1 0.337189 0.327823 0.401209
249 1 0.448535 0.474208 0.446019
136 1 0.601942 0.263496 0.270751
151 1 0.508875 0.360402 0.309945
230 1 0.573776 0.343183 0.399786
253 1 0.721522 0.356829 0.468808
140 1 0.80899 0.217868 0.335507
155 1 0.680588 0.372838 0.311014
234 1 0.724322 0.254945 0.40484
257 1 0.805844 0.341915 0.344968
159 1 0.910372 0.363224 0.289998
238 1 0.914531 0.274157 0.3862
144 1 1.00752 0.485988 0.251375
148 1 0.204129 0.499492 0.317373
163 1 0.107698 0.601968 0.311449
242 1 0.0430912 0.540194 0.470949
261 1 0.981316 0.544247 0.359296
265 1 0.207262 0.659122 0.396396
152 1 0.428237 0.518264 0.324872
167 1 0.263532 0.604364 0.31079
246 1 0.303278 0.47049 0.39243
269 1 0.450072 0.595039 0.407667
156 1 0.581756 0.475842 0.278571
171 1 0.534681 0.59025 0.330446
250 1 0.563856 0.517322 0.428423
273 1 0.651183 0.587159 0.361351
160 1 0.790831 0.397428 0.240415
175 1 0.694834 0.484862 0.206173
254 1 0.731339 0.486105 0.3367
277 1 0.713067 0.609027 0.256547
179 1 0.817046 0.538487 0.246964
258 1 0.869093 0.48159 0.339423
164 1 0.910833 0.663146 0.300797
168 1 0.163627 0.71664 0.280046
183 1 0.0911597 0.810338 0.346902
262 1 0.0172554 0.684314 0.370813
281 1 0.945753 0.789312 0.371161
285 1 0.203703 0.851948 0.313376
172 1 0.400957 0.673445 0.313683
187 1 0.336476 0.840956 0.266957
266 1 0.278114 0.750172 0.346112
289 1 0.424831 0.810968 0.394115
176 1 0.61802 0.67418 0.265751
191 1 0.453147 0.794962 0.269441
270 1 0.521738 0.71779 0.337736
293 1 0.600295 0.770552 0.419438
180 1 0.713671 0.768 0.305913
195 1 0.664447 0.885834 0.381384
274 1 0.683281 0.693199 0.418187
297 1 0.772131 0.791063 0.440775
199 1 0.83632 0.789965 0.299487
278 1 0.796642 0.682818 0.34648
184 1 0.969927 0.891946 0.331694
188 1 0.205803 0.977397 0.389357
282 1 0.0599526 0.8008 0.480947
192 1 0.423339 0.948198 0.321221
286 1 0.298589 0.876169 0.42427
196 1 0.530756 0.904881 0.289202
290 1 0.48139 0.91898 0.42707
200 1 0.792684 0.898334 0.332525
294 1 0.606647 0.974746 0.482206
298 1 0.872449 0.951908 0.438402
203 1 0.149493 0.897407 0.466296
204 1 0.943671 0.132819 0.468849
208 1 0.196808 0.0436928 0.582405
223 1 0.0330299 0.226504 0.436209
301 1 0.0220917 0.0196996 0.562646
302 1 0.0844433 0.112605 0.607328
305 1 0.262706 0.00516773 0.671126
321 1 0.0598137 0.122157 0.487795
325 1 0.204275 0.167621 0.601026
207 1 0.314282 0.0412976 0.552035
212 1 0.414033 0.117497 0.52263
227 1 0.280229 0.236563 0.481114
306 1 0.317223 0.158831 0.5827
309 1 0.365162 0.0669237 0.652146
329 1 0.376973 0.252173 0.541101
211 1 0.50854 0.0271973 0.507628
216 1 0.611407 0.117756 0.531873
231 1 0.503259 0.237269 0.493109
310 1 0.509574 0.137137 0.600104
313 1 0.601592 0.0238992 0.617393
333 1 0.634598 0.210933 0.617035
215 1 0.695806 0.0503399 0.507927
220 1 0.77078 0.153714 0.440629
235 1 0.704923 0.196678 0.523371
314 1 0.705457 0.11897 0.625484
317 1 0.790482 0.992279 0.615997
337 1 0.833061 0.152117 0.568758
219 1 0.823622 0.0425731 0.49608
239 1 0.938406 0.250676 0.526513
318 1 0.926507 0.012607 0.642561
224 1 0.00405629 0.340948 0.500331
228 1 0.152421 0.29672 0.546564
243 1 0.114757 0.409472 0.478796
322 1 0.0543597 0.220767 0.550836
341 1 0.983585 0.46409 0.589751
345 1 0.201171 0.415381 0.576423
232 1 0.43802 0.350216 0.510936
247 1 0.340247 0.427082 0.501358
326 1 0.292678 0.330386 0.556969
349 1 0.452448 0.445558 0.575198
236 1 0.618933 0.298828 0.511551
251 1 0.582947 0.430527 0.51115
330 1 0.558277 0.366916 0.614493
353 1 0.680663 0.391011 0.577801
240 1 0.747107 0.295111 0.581268
255 1 0.770722 0.452935 0.442847
334 1 0.628288 0.30265 0.690562
357 1 0.819422 0.439955 0.558164
259 1 0.882807 0.37972 0.463944
338 1 0.860065 0.3018 0.624789
244 1 0.897396 0.508625 0.487087
248 1 0.182129 0.506893 0.446407
263 1 0.15884 0.61346 0.518195
342 1 0.0998189 0.514783 0.585613
361 1 0.0560651 0.638141 0.589
365 1 0.273223 0.541407 0.596868
252 1 0.396647 0.558678 0.511041
267 1 0.306013 0.59213 0.432964
346 1 0.350204 0.426738 0.641087
369 1 0.510713 0.592026 0.514337
256 1 0.654494 0.441105 0.411093
271 1 0.58369 0.648884 0.442709
350 1 0.600275 0.550227 0.562206
373 1 0.683586 0.670505 0.568834
260 1 0.80801 0.575031 0.39016
275 1 0.682943 0.563601 0.484863
354 1 0.714245 0.515061 0.596925
377 1 0.820234 0.611247 0.572058
279 1 0.892027 0.692339 0.427514
358 1 0.901451 0.537153 0.665254
264 1 0.976116 0.65708 0.50196
268 1 0.26845 0.685861 0.50515
283 1 0.10988 0.699666 0.470056
362 1 0.131894 0.730558 0.582957
381 1 0.991351 0.766947 0.573315
385 1 0.224014 0.829379 0.571668
272 1 0.384899 0.697493 0.426963
287 1 0.335994 0.796604 0.535601
366 1 0.396569 0.666216 0.58016
389 1 0.433594 0.852116 0.64654
276 1 0.614565 0.768835 0.587284
291 1 0.505228 0.718625 0.490492
370 1 0.457363 0.723108 0.654574
393 1 0.546591 0.814842 0.686511
280 1 0.774401 0.682395 0.498059
295 1 0.673967 0.836782 0.501223
374 1 0.694572 0.784259 0.690866
397 1 0.793729 0.824205 0.563937
299 1 0.893392 0.827483 0.470808
378 1 0.876143 0.740855 0.572459
284 1 0.994526 0.902717 0.4983
288 1 0.209982 0.788267 0.43799
382 1 0.106019 0.862686 0.594659
292 1 0.439141 0.898082 0.532338
386 1 0.32706 0.908515 0.612039
296 1 0.551996 0.865816 0.551792
390 1 0.442142 0.984472 0.610275
300 1 0.764227 0.923584 0.489585
394 1 0.656738 0.916541 0.628466
398 1 0.887617 0.902308 0.563621
303 1 0.0832077 0.997551 0.742068
304 1 1.00298 0.0821984 0.708439
308 1 0.168427 0.0802181 0.694165
323 1 0.071137 0.220635 0.706287
401 1 0.968005 0.97083 0.799184
402 1 0.0851303 0.125104 0.788439
405 1 0.158285 0.0373271 0.83211
421 1 0.974936 0.220617 0.770631
425 1 0.195331 0.1801 0.776404
307 1 0.268894 0.982465 0.817859
312 1 0.416444 0.220539 0.648505
327 1 0.297498 0.263576 0.666283
406 1 0.332056 0.158398 0.736726
409 1 0.42094 0.965708 0.860259
429 1 0.37905 0.299997 0.770702
311 1 0.458479 0.0430608 0.73612
316 1 0.579921 0.123699 0.696272
331 1 0.524368 0.249811 0.677732
410 1 0.461519 0.159539 0.755148
413 1 0.595831 0.053974 0.785216
433 1 0.608239 0.217099 0.779694
315 1 0.73445 0.019197 0.727044
320 1 0.816533 0.0980899 0.695272
335 1 0.747452 0.215501 0.670411
414 1 0.739897 0.124778 0.783679
417 1 0.824726 0.0124276 0.840736
437 1 0.848456 0.206087 0.843487
319 1 0.857276 0.938888 0.728625
339 1 0.95813 0.162891 0.615751
418 1 0.924776 0.101036 0.799807
324 1 0.019328 0.339306 0.690029
328 1 0.172933 0.292162 0.659835
343 1 0.108205 0.432575 0.666041
422 1 0.0815377 0.287836 0.835023
441 1 0.0300539 0.418907 0.805999
445 1 0.204488 0.388758 0.82163
332 1 0.444531 0.347148 0.655232
347 1 0.303161 0.414035 0.751894
426 1 0.255211 0.260701 0.836238
449 1 0.440602 0.426453 0.733224
336 1 0.527316 0.358404 0.730419
351 1 0.534507 0.494351 0.662359
430 1 0.512398 0.26525 0.815525
453 1 0.571385 0.439686 0.841617
340 1 0.871717 0.209366 0.703815
355 1 0.631166 0.424379 0.696038
434 1 0.752787 0.246547 0.792673
457 1 0.75651 0.356634 0.694381
359 1 0.906143 0.408917 0.726028
438 1 0.876598 0.311891 0.778623
344 1 0.0541275 0.544652 0.733362
348 1 0.221036 0.488586 0.733937
363 1 0.181108 0.601151 0.643477
442 1 0.0151322 0.544182 0.88873
461 1 0.963771 0.598302 0.79264
465 1 0.15371 0.630834 0.758895
352 1 0.412145 0.533978 0.648004
367 1 0.302666 0.657132 0.656013
446 1 0.332844 0.548999 0.750162
469 1 0.368687 0.662711 0.890977
356 1 0.650204 0.548198 0.680514
371 1 0.508788 0.617112 0.630463
450 1 0.482935 0.539386 0.763622
473 1 0.600764 0.590098 0.781975
360 1 0.78642 0.488624 0.69587
375 1 0.72068 0.648575 0.692162
454 1 0.686545 0.480983 0.77976
477 1 0.816734 0.598316 0.752184
379 1 0.933057 0.660443 0.650478
458 1 0.880307 0.460028 0.824841
364 1 0.0362966 0.71399 0.69956
368 1 0.21214 0.718445 0.699971
383 1 0.141329 0.770106 0.775401
462 1 0.041155 0.688957 0.814312
481 1 0.0248413 0.823108 0.753592
485 1 0.191773 0.758728 0.905681
372 1 0.345927 0.766478 0.661067
387 1 0.246199 0.826682 0.682408
466 1 0.30729 0.661685 0.778698
489 1 0.357802 0.76441 0.829407
376 1 0.58526 0.684498 0.67691
391 1 0.457474 0.792238 0.77616
470 1 0.454672 0.652046 0.74971
493 1 0.55954 0.7454 0.851668
380 1 0.814145 0.748222 0.693616
395 1 0.631465 0.892639 0.75803
474 1 0.670025 0.714762 0.789484
497 1 0.805132 0.737383 0.831794
399 1 0.907768 0.833092 0.65862
478 1 0.917938 0.74736 0.750734
384 1 0.0125698 0.925952 0.655557
388 1 0.19598 0.920847 0.720632
482 1 0.12523 0.910382 0.814958
392 1 0.407211 0.903072 0.750783
486 1 0.26433 0.837386 0.804721
396 1 0.555171 0.970383 0.702938
490 1 0.462975 0.834748 0.886728
400 1 0.767987 0.862448 0.738433
494 1 0.561639 0.959561 0.864547
498 1 0.899648 0.863637 0.796189
403 1 0.197047 0.154945 0.903668
404 1 0.0329767 0.0692348 0.891156
408 1 0.310499 0.100994 0.837663
423 1 0.0701697 0.2015 0.916536
407 1 0.273577 0.0480955 0.933639
412 1 0.397959 0.221793 0.870133
427 1 0.303997 0.217847 0.974103
411 1 0.504502 0.0469633 0.929842
416 1 0.533807 0.141305 0.869847
431 1 0.536088 0.260534 0.954231
415 1 0.725549 0.956569 0.825576
420 1 0.823038 0.106634 0.946206
435 1 0.75974 0.207466 0.963099
419 1 0.914491 0.0340157 0.915333
439 1 0.959083 0.162413 0.928828
424 1 0.957157 0.322759 0.895647
428 1 0.165474 0.29005 0.924631
443 1 0.0982564 0.405198 0.942278
432 1 0.326153 0.360998 0.88808
447 1 0.24964 0.44141 0.925138
436 1 0.631587 0.233901 0.897587
451 1 0.449351 0.344293 0.871166
440 1 0.805348 0.318019 0.872178
455 1 0.66585 0.336885 0.846655
459 1 0.863772 0.424309 0.954744
444 1 0.971682 0.446314 0.938347
448 1 0.124903 0.486999 0.840199
463 1 0.120097 0.610492 0.917501
452 1 0.395848 0.460933 0.874914
467 1 0.3096 0.554993 0.876834
456 1 0.618371 0.531616 0.899747
471 1 0.496064 0.590039 0.879312
460 1 0.755633 0.470961 0.875654
475 1 0.756807 0.607426 0.854958
479 1 0.864402 0.542267 0.894358
464 1 0.919493 0.661156 0.886046
468 1 0.221981 0.658662 0.882024
483 1 0.0830194 0.787878 0.880308
472 1 0.335858 0.624763 0.0148674
487 1 0.288455 0.728076 0.962987
476 1 0.624625 0.650186 0.886239
491 1 0.488935 0.702688 0.92488
480 1 0.779952 0.695249 0.954932
495 1 0.672704 0.829759 0.834873
499 1 0.953287 0.784863 0.876218
484 1 0.0799319 0.906831 0.935276
488 1 0.208934 0.879399 0.920299
492 1 0.331544 0.862855 0.932776
496 1 0.602313 0.866062 0.942503
500 1 0.81154 0.850215 0.873429
