ITEM: TIMESTEP
50
ITEM: NUMBER OF ATOMS
4000
ITEM: BOX BOUNDS pp pp pp
0.0000000000000000e+00 1.6757672110741936e+01
0.0000000000000000e+00 1.6757672110741936e+01
0.0000000000000000e+00 1.6757672110741936e+01
ITEM: ATOMS id type x y z xu yu zu vx vy vz
1 1 16.6706 16.7394 0.0252158 -0.0870449 -0.0182493 0.0252158 -0.427561 0.63942 1.89914
2 1 0.690175 1.07631 0.0970129 0.690175 1.07631 0.0970129 0.246292 -0.4528 -0.277203
3 1 0.795557 0.0245725 0.777023 0.795557 0.0245725 0.777023 -0.0340458 0.619557 -0.414799
4 1 0.00376001 0.927605 0.829232 0.00376001 0.927605 0.829232 -0.258582 0.263746 0.043317
5 1 1.70765 0.070725 0.0153889 1.70765 0.070725 0.0153889 1.19234 0.42289 -0.876395
6 1 2.46409 0.805169 16.7002 2.46409 0.805169 -0.0574271 -1.09687 -0.721939 -0.0383019
7 1 2.5093 16.6358 0.763205 2.5093 -0.121869 0.763205 0.675533 0.696285 -0.713364
8 1 1.79619 0.77163 0.784637 1.79619 0.77163 0.784637 -1.06487 -0.808849 -0.690034
9 1 3.35549 0.0124194 0.0741008 3.35549 0.0124194 0.0741008 -0.899067 -0.0180617 -0.570478
10 1 4.19898 0.920473 16.652 4.19898 0.920473 -0.105636 -0.910542 -0.622751 0.142966
11 1 4.35091 0.0107893 0.799994 4.35091 0.0107893 0.799994 0.903634 -0.115364 0.260726
12 1 3.44948 0.659297 0.925082 3.44948 0.659297 0.925082 0.437124 -0.920493 0.0259444
13 1 5.12289 0.244934 0.0767435 5.12289 0.244934 0.0767435 -0.205172 -0.282742 -1.49972
14 1 5.78977 1.00335 16.5657 5.78977 1.00335 -0.192009 -1.17709 0.493518 -0.928847
15 1 6.03597 0.106955 0.886733 6.03597 0.106955 0.886733 0.407055 0.756156 -0.0238007
16 1 4.97383 0.956674 0.867113 4.97383 0.956674 0.867113 0.253381 0.993578 0.402878
17 1 6.75285 0.0296616 0.0109241 6.75285 0.0296616 0.0109241 0.377775 -0.145201 -0.671576
18 1 7.54012 0.732279 0.311396 7.54012 0.732279 0.311396 0.608216 -0.835145 0.0471462
19 1 7.53965 16.585 0.938756 7.53965 -0.172687 0.938756 1.16999 0.236405 0.941951
20 1 6.67833 1.00521 0.75235 6.67833 1.00521 0.75235 0.0541823 0.538705 -0.227412
21 1 8.4783 16.7354 0.18731 8.4783 -0.0222488 0.18731 -0.186843 -0.539655 1.5895
24 1 8.47632 0.898676 0.702979 8.47632 0.898676 0.702979 0.643623 -0.775177 0.367524
22 1 9.34269 0.981266 16.652 9.34269 0.981266 -0.105664 1.23668 0.538536 -0.521244
23 1 9.39691 0.165934 0.658866 9.39691 0.165934 0.658866 0.0205076 -1.00751 -0.69258
25 1 10.0468 16.7335 16.6242 10.0468 -0.0241497 -0.133505 -0.465358 0.43269 0.426327
28 1 10.2536 0.759127 0.624174 10.2536 0.759127 0.624174 0.404936 -1.22497 -1.16133
26 1 11.0586 0.760435 16.6561 11.0586 0.760435 -0.101529 1.73463 -0.831866 1.10257
27 1 11.0506 0.000720595 0.690939 11.0506 0.000720595 0.690939 0.197262 -0.749382 0.748526
29 1 11.782 0.0186774 0.0272045 11.782 0.0186774 0.0272045 0.828599 -0.562487 0.130311
32 1 11.9267 0.960824 0.815975 11.9267 0.960824 0.815975 -0.64019 -0.982461 0.453465
30 1 12.5592 0.913243 16.676 12.5592 0.913243 -0.0816772 1.47571 -1.26031 0.252367
31 1 12.5778 0.131277 0.78086 12.5778 0.131277 0.78086 0.294743 -0.761079 0.131945
33 1 13.3223 16.6443 0.0490046 13.3223 -0.113356 0.0490046 -0.789557 1.28598 0.768369
36 1 13.6427 0.669835 0.773749 13.6427 0.669835 0.773749 0.239438 -1.13398 -0.512266
34 1 14.3538 0.725606 16.6869 14.3538 0.725606 -0.0708087 -1.08216 -0.275985 -0.0461697
35 1 14.3935 16.7424 0.830287 14.3935 -0.0152637 0.830287 0.303804 0.625885 0.341573
37 1 15.0777 16.6648 0.00413501 15.0777 -0.0928292 0.00413501 0.103295 1.14845 1.15353
40 1 15.0725 0.817336 0.832607 15.0725 0.817336 0.832607 0.0121087 0.0648873 0.625888
38 1 15.904 0.877099 0.0335659 15.904 0.877099 0.0335659 1.78475 0.275712 -0.662077
39 1 15.8743 0.0728038 0.894327 15.8743 0.0728038 0.894327 0.657346 0.00122381 -0.602458
41 1 16.6559 1.89991 16.6919 -0.101795 1.89991 -0.0658197 -1.202 0.168538 -0.00917382
42 1 0.78808 2.52669 0.0265549 0.78808 2.52669 0.0265549 -0.729848 1.10496 0.209008
43 1 1.00519 1.62738 0.906089 1.00519 1.62738 0.906089 -0.187485 1.08039 -0.469113
44 1 16.5056 2.53908 0.821395 -0.252038 2.53908 0.821395 0.386193 0.07461 -1.14203
45 1 1.62633 1.68788 16.7081 1.62633 1.68788 -0.0495978 0.823621 0.113202 0.0236985
46 1 2.65227 2.51659 16.5408 2.65227 2.51659 -0.216853 -0.346177 0.490276 0.286463
47 1 2.64849 1.38361 0.835637 2.64849 1.38361 0.835637 0.800264 0.762878 -0.332972
48 1 1.44678 2.5635 0.789864 1.44678 2.5635 0.789864 0.380857 -0.656727 0.535117
49 1 3.35462 1.60018 16.6313 3.35462 1.60018 -0.1264 0.651316 -0.452156 -1.44036
50 1 4.16715 2.52079 16.7574 4.16715 2.52079 -0.000310143 -0.889403 -0.31195 0.729541
51 1 4.06477 1.62773 0.773109 4.06477 1.62773 0.773109 0.689678 1.08128 0.190503
52 1 3.27606 2.34162 0.71977 3.27606 2.34162 0.71977 0.819946 0.379032 -0.812331
53 1 5.03017 1.71101 0.102576 5.03017 1.71101 0.102576 0.373001 -0.774037 -0.588325
54 1 5.8272 2.38987 16.6821 5.8272 2.38987 -0.0755855 0.657166 -0.474476 0.501071
55 1 5.75986 1.75252 1.00792 5.75986 1.75252 1.00792 -0.364414 -0.149245 -0.787189
56 1 4.93642 2.56513 0.796019 4.93642 2.56513 0.796019 -0.270747 0.479554 0.159546
57 1 6.7281 1.82967 16.7156 6.7281 1.82967 -0.0420965 0.114679 0.604199 -0.210258
58 1 7.60229 2.3872 16.7041 7.60229 2.3872 -0.0535287 -0.453465 0.870831 -0.266973
59 1 7.65831 1.62317 0.783943 7.65831 1.62317 0.783943 -0.21483 0.500263 -0.435343
60 1 6.54699 2.47205 0.872539 6.54699 2.47205 0.872539 0.473393 -1.17897 -0.120533
61 1 8.4523 1.69124 16.6592 8.4523 1.69124 -0.0985204 0.44031 0.515201 0.201288
64 1 8.29477 2.62725 0.836185 8.29477 2.62725 0.836185 -0.556641 -0.0383311 -0.378578
62 1 9.24948 2.58241 16.7083 9.24948 2.58241 -0.0494085 -1.25129 -0.0280777 0.294452
63 1 9.0876 1.90379 0.90203 9.0876 1.90379 0.90203 -0.144741 0.955321 -1.08749
65 1 9.96144 1.74526 0.24587 9.96144 1.74526 0.24587 -0.220388 1.00263 0.279619
68 1 9.87824 2.66576 0.899547 9.87824 2.66576 0.899547 0.703381 -0.206435 1.34313
66 1 10.7868 2.51482 0.0160254 10.7868 2.51482 0.0160254 0.208275 -1.057 0.206595
67 1 10.906 1.55064 0.841582 10.906 1.55064 0.841582 0.188007 -0.417645 0.178923
69 1 11.8754 1.67304 0.0251293 11.8754 1.67304 0.0251293 0.61784 0.914564 -0.575025
72 1 11.9002 2.66621 0.859009 11.9002 2.66621 0.859009 0.359863 -0.485145 0.474177
70 1 12.7357 2.52689 0.0546856 12.7357 2.52689 0.0546856 0.675385 -0.0712188 -0.00432564
71 1 12.6385 1.74791 0.974427 12.6385 1.74791 0.974427 -0.344795 -0.0369105 0.827555
73 1 13.3627 1.5523 0.0301793 13.3627 1.5523 0.0301793 0.913894 0.816989 0.30305
76 1 13.5034 2.45453 0.934834 13.5034 2.45453 0.934834 0.876178 -0.0751998 -0.199054
74 1 14.0778 2.30427 0.0530563 14.0778 2.30427 0.0530563 -1.14916 0.0177009 -0.602903
75 1 14.0966 1.60023 0.797125 14.0966 1.60023 0.797125 -1.20462 -0.222717 0.252629
77 1 14.9455 1.60215 0.0874175 14.9455 1.60215 0.0874175 -1.13531 0.634063 -0.874942
80 1 14.9765 2.45227 0.79187 14.9765 2.45227 0.79187 0.897661 -0.180766 -0.278046
78 1 15.765 2.57022 0.0617092 15.765 2.57022 0.0617092 0.139264 0.598272 -0.935647
79 1 15.7907 1.67996 0.907512 15.7907 1.67996 0.907512 -1.70307 0.127814 1.03026
81 1 0.0474399 3.49868 16.7014 0.0474399 3.49868 -0.0562589 -0.942301 0.561897 -0.0357527
82 1 0.740878 4.32516 16.75 0.740878 4.32516 -0.00768237 0.0376986 0.639164 -0.330046
83 1 0.738041 3.31423 0.784905 0.738041 3.31423 0.784905 0.374563 -0.964267 0.265943
84 1 16.7471 4.21892 0.842013 -0.0105746 4.21892 0.842013 0.141451 -1.62775 0.164325
85 1 1.58144 3.26377 16.7319 1.58144 3.26377 -0.0257665 -0.135755 -1.12134 0.0221663
86 1 2.36057 4.40696 0.0212996 2.36057 4.40696 0.0212996 -2.17549 -0.471627 0.0365102
87 1 2.48936 3.28007 0.66769 2.48936 3.28007 0.66769 0.0832649 0.244708 -1.41724
88 1 1.58766 4.10629 0.805263 1.58766 4.10629 0.805263 -0.496179 -1.13998 -0.423655
89 1 3.31254 3.34378 16.5551 3.31254 3.34378 -0.202572 -1.19635 0.304056 0.697452
90 1 4.18887 4.12831 16.6983 4.18887 4.12831 -0.0593899 -0.240332 0.156714 -1.2546
91 1 4.01186 3.25173 0.737095 4.01186 3.25173 0.737095 0.230466 -0.452663 -0.96706
92 1 3.30574 4.0981 0.800171 3.30574 4.0981 0.800171 0.866556 -1.06133 -0.296506
93 1 4.99112 3.35502 16.7204 4.99112 3.35502 -0.0372487 -1.35136 -0.113033 0.815818
94 1 5.7002 4.25692 0.212138 5.7002 4.25692 0.212138 0.576232 0.0945755 -0.0114055
95 1 5.79116 3.22389 0.709866 5.79116 3.22389 0.709866 -0.145177 0.328133 0.637116
96 1 4.81673 4.10417 0.797549 4.81673 4.10417 0.797549 -0.224816 -0.0191974 0.0665562
97 1 6.67487 3.25272 0.142521 6.67487 3.25272 0.142521 1.4666 0.424987 0.564233
98 1 7.46714 4.25492 0.14131 7.46714 4.25492 0.14131 -0.39232 -1.11395 -0.419873
99 1 7.47681 3.38629 0.81121 7.47681 3.38629 0.81121 -0.102134 -0.465123 -0.0559084
100 1 6.62521 4.20038 0.854715 6.62521 4.20038 0.854715 -0.77436 0.184351 -0.455736
101 1 8.29719 3.57996 0.18107 8.29719 3.57996 0.18107 -0.240092 -0.136988 0.774436
104 1 8.337 4.3039 1.02003 8.337 4.3039 1.02003 -0.158339 0.553395 0.851156
102 1 9.15059 4.14574 16.7265 9.15059 4.14574 -0.031192 -0.0800421 -1.4554 0.0229162
103 1 9.05438 3.29737 0.905588 9.05438 3.29737 0.905588 0.00487687 0.0422771 -0.596802
105 1 10.0801 3.26027 16.7431 10.0801 3.26027 -0.0145703 -1.64101 0.874158 0.689571
108 1 10.1483 4.05789 0.864541 10.1483 4.05789 0.864541 -0.769339 -0.380427 -0.0421887
106 1 10.7466 4.13727 16.7255 10.7466 4.13727 -0.0321867 -0.450738 -0.157529 -0.689956
107 1 10.8926 3.07051 0.90073 10.8926 3.07051 0.90073 0.188366 -0.807404 -0.675213
109 1 11.7085 3.10406 16.6963 11.7085 3.10406 -0.0613722 -0.740385 0.0164552 -0.12846
112 1 11.4295 4.00651 0.779714 11.4295 4.00651 0.779714 -0.0205663 -0.657148 -0.408811
110 1 12.4381 4.16899 0.102953 12.4381 4.16899 0.102953 -0.0983554 -1.03909 0.0289439
111 1 12.8238 3.36445 0.778153 12.8238 3.36445 0.778153 0.511419 -0.430982 -0.991535
113 1 13.4612 3.59814 0.0239415 13.4612 3.59814 0.0239415 0.110455 0.219453 1.22692
116 1 13.3907 4.33404 0.794816 13.3907 4.33404 0.794816 0.897216 0.742051 0.836624
114 1 14.3893 4.23774 0.114326 14.3893 4.23774 0.114326 0.873333 -0.553728 -0.119678
115 1 14.3872 3.38979 0.887815 14.3872 3.38979 0.887815 -0.960565 1.18395 -0.338132
117 1 14.8945 3.33335 16.7402 14.8945 3.33335 -0.0174471 -0.615746 -0.0323945 -0.685191
120 1 15.1197 4.32376 0.801085 15.1197 4.32376 0.801085 -0.0650167 0.0576258 1.13666
118 1 16.0084 4.17154 16.705 16.0084 4.17154 -0.0527 -0.822614 0.520378 -0.134943
119 1 15.7089 3.34575 0.737209 15.7089 3.34575 0.737209 0.383688 -0.812227 1.53413
121 1 0.0440362 5.06561 0.0360495 0.0440362 5.06561 0.0360495 1.03449 1.91657 -1.04485
122 1 1.04692 6.04559 0.0119688 1.04692 6.04559 0.0119688 -0.060777 0.694023 -1.04236
123 1 0.771859 5.05764 0.845788 0.771859 5.05764 0.845788 1.6267 -1.07622 0.353262
124 1 16.7026 5.8229 0.680984 -0.0551088 5.8229 0.680984 0.308392 1.47091 -0.161652
125 1 1.62709 5.0795 16.409 1.62709 5.0795 -0.348629 -0.488047 0.288818 -0.599487
126 1 2.65908 5.87824 16.6185 2.65908 5.87824 -0.139219 0.291436 0.0127286 -1.6757
127 1 2.5864 5.34085 0.734458 2.5864 5.34085 0.734458 -0.349933 -0.457864 0.093672
128 1 1.70863 5.91532 1.06063 1.70863 5.91532 1.06063 0.717347 0.468925 0.189681
129 1 3.32186 5.02693 16.6536 3.32186 5.02693 -0.104029 -0.374307 0.517107 0.111878
130 1 4.18928 5.74907 16.6606 4.18928 5.74907 -0.0971093 -0.0743276 0.467478 0.162573
131 1 4.11198 5.152 0.755231 4.11198 5.152 0.755231 0.617324 0.601069 -0.308868
132 1 3.42236 5.93393 0.825215 3.42236 5.93393 0.825215 0.80946 0.196411 0.515243
133 1 4.8994 4.88545 16.6633 4.8994 4.88545 -0.0943496 0.151541 0.28934 0.783885
134 1 6.1004 5.84007 16.7144 6.1004 5.84007 -0.0433209 0.123069 0.24806 0.106725
135 1 5.89769 5.09948 0.762102 5.89769 5.09948 0.762102 -0.00877989 0.471194 0.140344
136 1 4.95626 5.77862 0.72682 4.95626 5.77862 0.72682 -0.883858 -0.505836 -0.534348
137 1 6.47193 4.81515 16.5779 6.47193 4.81515 -0.179759 -0.968369 -1.31281 -0.383975
138 1 7.26128 5.71099 16.6266 7.26128 5.71099 -0.131032 -0.947332 -0.00400119 -0.504069
139 1 7.68966 5.08199 0.762144 7.68966 5.08199 0.762144 0.153663 0.0707556 -0.647753
140 1 6.69891 5.66089 0.930312 6.69891 5.66089 0.930312 -0.641241 -0.27446 -0.353935
141 1 8.29829 4.94544 16.5576 8.29829 4.94544 -0.20006 0.683585 0.616635 0.129355
144 1 8.52396 5.73337 0.616882 8.52396 5.73337 0.616882 -0.469748 -0.18283 -0.865063
142 1 9.35122 5.84753 16.7166 9.35122 5.84753 -0.04111 -0.438848 -1.28465 -0.484702
143 1 9.33951 5.01537 0.674666 9.33951 5.01537 0.674666 0.244038 -0.242505 -0.717282
145 1 10.0816 4.95061 16.5925 10.0816 4.95061 -0.165135 -0.182201 0.283069 -0.134714
148 1 10.09 6.00267 1.03512 10.09 6.00267 1.03512 -0.371014 -0.606389 0.340658
146 1 10.9692 5.96316 16.748 10.9692 5.96316 -0.00962768 0.423925 -0.391664 -0.0767205
147 1 10.7129 5.0096 0.729375 10.7129 5.0096 0.729375 0.14871 -0.988336 0.470676
149 1 11.636 4.97047 16.7082 11.636 4.97047 -0.0494597 -0.779 0.331286 0.745071
152 1 11.6834 5.82517 0.834937 11.6834 5.82517 0.834937 0.882524 0.338048 -0.0893922
150 1 12.44 5.76972 16.6971 12.44 5.76972 -0.060604 -1.65947 -0.181539 1.55328
151 1 12.7057 5.18005 0.7996 12.7057 5.18005 0.7996 -0.0743063 -0.553716 0.831297
153 1 13.4808 5.08773 0.0365663 13.4808 5.08773 0.0365663 -0.581994 0.462529 0.688587
156 1 13.4279 5.90498 0.836261 13.4279 5.90498 0.836261 0.597524 -0.0751957 -0.689108
154 1 14.2328 6.03323 16.6789 14.2328 6.03323 -0.0787456 0.736245 -0.878974 0.637274
155 1 14.3221 5.14363 0.709918 14.3221 5.14363 0.709918 -0.371825 0.858701 -0.642242
157 1 15.2445 5.18287 16.5973 15.2445 5.18287 -0.160416 -0.595948 0.734597 -0.529443
160 1 15.1825 6.01534 0.72197 15.1825 6.01534 0.72197 -0.393163 -0.0787416 -0.493754
158 1 15.8759 6.01174 16.6486 15.8759 6.01174 -0.109089 0.287384 -0.00587808 -1.39882
159 1 16.0286 4.9094 0.833131 16.0286 4.9094 0.833131 -0.259619 -0.419279 0.251716
161 1 0.0153641 6.79157 16.7536 0.0153641 6.79157 -0.00405917 -0.68096 1.00794 -0.264813
162 1 0.775155 7.58589 16.7552 0.775155 7.58589 -0.00249028 0.859849 0.851393 0.0397329
163 1 0.78969 6.74487 0.813664 0.78969 6.74487 0.813664 1.46051 0.139696 0.752627
164 1 0.178302 7.696 0.889354 0.178302 7.696 0.889354 0.372553 -1.12653 0.560396
165 1 1.66668 6.82838 16.6646 1.66668 6.82838 -0.0930799 -0.0478459 -0.381137 0.679341
166 1 2.60536 7.31397 16.6288 2.60536 7.31397 -0.128828 -0.217788 0.19451 -1.14559
167 1 2.4831 6.59512 0.768352 2.4831 6.59512 0.768352 -0.173517 -0.251549 0.132612
168 1 1.72898 7.68423 0.953682 1.72898 7.68423 0.953682 0.0626083 -0.11532 -0.647648
169 1 3.48556 6.68028 16.6268 3.48556 6.68028 -0.130911 -0.467798 0.531249 -0.200788
170 1 4.12572 7.54571 16.5221 4.12572 7.54571 -0.235565 -0.723959 -0.983621 -0.292575
171 1 4.17822 6.71258 0.904805 4.17822 6.71258 0.904805 -0.402369 -0.0868614 -0.297782
172 1 3.35485 7.35622 0.669173 3.35485 7.35622 0.669173 0.402218 0.169449 0.917609
173 1 4.88858 6.79337 0.0815198 4.88858 6.79337 0.0815198 -0.125519 -0.285821 -0.9878
174 1 6.01397 7.71363 16.729 6.01397 7.71363 -0.0286843 0.118346 -0.584231 -0.16522
175 1 5.80664 6.55846 0.743107 5.80664 6.55846 0.743107 -0.189802 0.233758 -0.678444
176 1 5.14521 7.51343 1.02341 5.14521 7.51343 1.02341 1.01065 0.308714 0.123787
177 1 6.67878 6.7431 0.124358 6.67878 6.7431 0.124358 0.185896 0.128112 0.27053
178 1 7.67995 7.62356 0.0228166 7.67995 7.62356 0.0228166 -0.338979 -0.260693 0.57
179 1 7.56516 6.56328 0.841022 7.56516 6.56328 0.841022 -0.710182 -1.05819 0.235998
180 1 6.71085 7.57711 0.777051 6.71085 7.57711 0.777051 1.0938 0.0747905 0.419265
181 1 8.43633 6.64778 0.0121879 8.43633 6.64778 0.0121879 0.645536 0.420525 -0.208119
184 1 8.36409 7.4736 0.777508 8.36409 7.4736 0.777508 1.07078 -1.28535 -0.392584
182 1 9.37398 7.42261 0.0543034 9.37398 7.42261 0.0543034 -0.20069 0.222434 1.42953
183 1 9.25608 6.57883 0.671297 9.25608 6.57883 0.671297 -0.752566 0.143805 -1.12945
185 1 10.0092 6.60116 16.6341 10.0092 6.60116 -0.123596 1.65475 0.848994 -0.292363
188 1 9.86041 7.37174 1.0659 9.86041 7.37174 1.0659 0.267285 0.44711 0.671842
186 1 10.7392 7.64057 16.7234 10.7392 7.64057 -0.034299 -0.343101 0.911072 -0.366786
187 1 10.9196 6.67319 0.735723 10.9196 6.67319 0.735723 0.243271 -0.0527863 -0.153062
189 1 11.7269 6.74724 0.05721 11.7269 6.74724 0.05721 0.768004 -0.739703 -1.1499
192 1 11.8556 7.78867 0.711342 11.8556 7.78867 0.711342 -0.916729 0.269785 -0.933989
190 1 12.5792 7.46936 16.705 12.5792 7.46936 -0.0526865 0.67634 -0.664758 -0.158886
191 1 12.5155 6.55897 0.795602 12.5155 6.55897 0.795602 -1.36635 -0.328489 -1.08268
193 1 13.2988 6.66474 0.0380247 13.2988 6.66474 0.0380247 -0.774889 -0.836259 0.579297
196 1 13.5647 7.41239 0.912032 13.5647 7.41239 0.912032 1.11013 0.56999 -0.12314
194 1 14.2877 7.41588 0.194581 14.2877 7.41588 0.194581 0.38363 -0.322695 0.297409
195 1 14.2295 6.57684 0.865334 14.2295 6.57684 0.865334 1.18518 -0.657045 0.885559
197 1 15.1349 6.82254 0.11845 15.1349 6.82254 0.11845 -0.631935 -0.114587 -0.179963
200 1 15.0882 7.58659 0.817664 15.0882 7.58659 0.817664 -0.720555 0.448076 -0.308398
198 1 15.9126 7.68882 0.197683 15.9126 7.68882 0.197683 0.0427171 -0.777829 -0.410736
199 1 16.0507 6.69716 0.756872 16.0507 6.69716 0.756872 -0.232843 0.808383 -1.03401
201 1 16.7026 8.2724 16.6998 -0.0550446 8.2724 -0.0578468 0.907065 1.32811 0.0895527
203 1 0.949344 8.37002 0.817888 0.949344 8.37002 0.817888 1.25217 0.0406131 0.575228
205 1 1.56783 8.59483 16.6199 1.56783 8.59483 -0.137818 0.218659 0.604108 -0.408989
207 1 2.7427 8.29184 0.809561 2.7427 8.29184 0.809561 0.0762892 -0.570685 -0.0626757
209 1 3.36228 8.27628 0.05643 3.36228 8.27628 0.05643 0.493065 1.12431 0.053725
211 1 4.44334 8.20415 0.675316 4.44334 8.20415 0.675316 -0.139376 0.375861 -1.07386
213 1 5.13166 8.3612 16.5562 5.13166 8.3612 -0.201444 -0.0810531 0.00178634 -0.113291
215 1 5.76036 8.52647 0.698244 5.76036 8.52647 0.698244 -0.0235601 -0.673674 -0.0931049
217 1 6.70215 8.48315 0.244085 6.70215 8.48315 0.244085 0.498292 0.0399348 0.593707
219 1 7.70643 8.36616 0.944777 7.70643 8.36616 0.944777 -0.0657874 -0.280015 -0.518109
221 1 8.38603 8.40838 16.4917 8.38603 8.40838 -0.265946 0.636018 -0.591716 -0.925429
223 1 9.17994 8.17164 0.794842 9.17994 8.17164 0.794842 0.272461 -0.0564003 -0.672385
225 1 10.1125 8.49799 0.265512 10.1125 8.49799 0.265512 -0.759929 -0.774503 -0.0215871
227 1 11.0284 8.59377 0.743601 11.0284 8.59377 0.743601 0.68261 0.56884 -0.038884
229 1 11.459 8.40625 16.597 11.459 8.40625 -0.160636 -0.727721 0.217757 -0.661051
231 1 12.9002 8.31705 0.726819 12.9002 8.31705 0.726819 0.890445 1.38531 0.43677
233 1 13.5962 8.20527 16.6767 13.5962 8.20527 -0.0810179 -0.193456 0.382071 -0.58725
235 1 14.3574 8.39563 0.915844 14.3574 8.39563 0.915844 0.834853 0.345813 0.549024
237 1 14.9485 8.20286 16.6862 14.9485 8.20286 -0.0714846 0.552057 -0.00476456 -0.78965
239 1 16.0239 8.41991 0.933283 16.0239 8.41991 0.933283 -0.183858 -0.162531 1.10104
202 1 0.494376 9.25716 16.745 0.494376 9.25716 -0.0126761 -0.831564 -0.619988 -0.559237
204 1 16.7387 9.26182 1.01681 -0.018932 9.26182 1.01681 -0.677311 1.09219 -0.610231
241 1 16.5848 10.0118 0.143019 -0.172888 10.0118 0.143019 -1.68646 0.0625872 0.204714
243 1 0.706043 10.1763 0.756921 0.706043 10.1763 0.756921 0.108649 -0.415246 0.663098
206 1 2.63787 9.21173 0.119046 2.63787 9.21173 0.119046 1.20105 -0.375323 0.229103
208 1 1.85571 9.08041 1.03312 1.85571 9.08041 1.03312 -0.04346 -0.0765081 0.945898
245 1 1.64448 9.68403 0.175757 1.64448 9.68403 0.175757 0.658453 -1.16492 0.811703
247 1 2.55898 9.96174 0.872948 2.55898 9.96174 0.872948 -0.24979 0.668038 -0.530513
210 1 3.9112 9.29915 0.000828957 3.9112 9.29915 0.000828957 -0.748228 -0.21248 -0.523313
212 1 3.33784 9.16696 0.972488 3.33784 9.16696 0.972488 0.67018 0.241584 0.638521
249 1 3.36283 10.2546 16.5817 3.36283 10.2546 -0.175952 -0.540963 0.317072 1.07948
251 1 4.05057 10.0133 0.90267 4.05057 10.0133 0.90267 -0.244673 -1.12298 -0.541446
214 1 6.07027 9.34164 0.0277746 6.07027 9.34164 0.0277746 -0.7943 -0.707517 -0.0189568
216 1 4.96692 9.31572 0.690294 4.96692 9.31572 0.690294 0.00898014 0.281292 -1.0581
253 1 4.97125 10.172 0.125276 4.97125 10.172 0.125276 0.0846099 1.01551 -0.589844
255 1 5.853 10.1608 0.933867 5.853 10.1608 0.933867 -0.486126 0.369418 0.666145
218 1 7.67966 9.23135 16.6271 7.67966 9.23135 -0.130603 1.75314 0.0230777 0.195031
220 1 6.69613 9.2711 0.882508 6.69613 9.2711 0.882508 0.529861 0.76085 0.118916
257 1 6.81587 9.91153 16.3989 6.81587 9.91153 -0.358814 -0.483693 -0.0184545 -0.633217
259 1 7.40593 10.2064 0.608524 7.40593 10.2064 0.608524 0.197085 -0.173823 -0.224465
224 1 8.49324 9.17606 0.7032 8.49324 9.17606 0.7032 1.22992 1.01178 -0.0782924
261 1 8.57633 9.9213 16.5739 8.57633 9.9213 -0.183817 -0.143577 -0.285579 -0.417548
222 1 9.39467 9.21207 16.6724 9.39467 9.21207 -0.0853055 0.803525 0.582238 0.330844
228 1 10.2537 9.36763 0.91927 10.2537 9.36763 0.91927 -0.0894021 1.17623 -0.456072
263 1 9.31734 10.0972 0.813523 9.31734 10.0972 0.813523 -0.0756995 -0.0794761 0.73746
265 1 10.2158 10.0394 16.7454 10.2158 10.0394 -0.012265 -0.0250435 -0.11465 0.679747
226 1 10.8085 9.2507 16.5209 10.8085 9.2507 -0.236815 -0.628059 -0.641421 -0.342583
232 1 11.937 9.20355 0.553408 11.937 9.20355 0.553408 0.316628 -0.115168 -0.946231
267 1 11.1004 10.0166 1.07927 11.1004 10.0166 1.07927 0.206176 -0.782771 -0.522738
269 1 11.594 10.0485 16.7101 11.594 10.0485 -0.0475975 -0.744057 -0.619133 0.717747
230 1 12.6804 9.197 16.588 12.6804 9.197 -0.169658 0.685596 -0.00102907 -0.0025753
236 1 13.3892 9.27354 0.861531 13.3892 9.27354 0.861531 -0.859741 -0.73898 -0.161118
271 1 12.3142 10.1687 0.944631 12.3142 10.1687 0.944631 -1.01395 -0.35787 0.659872
273 1 13.2997 10.0685 16.7084 13.2997 10.0685 -0.0492507 -0.222883 0.305088 -0.0423365
234 1 14.1992 9.28671 16.7205 14.1992 9.28671 -0.0372015 0.069667 -0.695635 -0.0258623
240 1 15.1547 9.15874 0.517123 15.1547 9.15874 0.517123 -1.0306 -0.296542 -0.661187
275 1 14.4367 9.9305 0.879009 14.4367 9.9305 0.879009 0.402028 0.110331 -1.68769
277 1 14.9442 10.0544 16.7333 14.9442 10.0544 -0.0244164 -0.419843 -0.259098 0.448463
238 1 16.0645 9.0573 0.0543543 16.0645 9.0573 0.0543543 0.11464 0.404631 0.455413
279 1 15.7331 10.1137 0.766766 15.7331 10.1137 0.766766 0.114252 -1.60502 -1.17138
242 1 0.885621 11.1845 0.10117 0.885621 11.1845 0.10117 -0.444751 0.115369 -1.08195
244 1 16.5659 11.0401 0.861185 -0.191752 11.0401 0.861185 -1.05235 -0.902559 -0.324282
281 1 16.7047 11.7035 0.0375141 -0.0529704 11.7035 0.0375141 0.0234204 0.117733 -0.996491
283 1 0.789129 11.7268 1.00474 0.789129 11.7268 1.00474 0.313385 0.495025 0.906948
246 1 2.38129 10.7417 0.0232999 2.38129 10.7417 0.0232999 -0.731174 -0.810084 0.320881
248 1 1.76275 10.9608 0.845931 1.76275 10.9608 0.845931 0.450331 0.586711 -0.13415
285 1 1.79332 11.8677 0.00268178 1.79332 11.8677 0.00268178 1.47195 -0.452407 -0.494971
287 1 2.58502 11.6237 1.01881 2.58502 11.6237 1.01881 -0.230936 -0.360009 1.04498
250 1 4.26106 10.9257 0.103568 4.26106 10.9257 0.103568 0.874254 -0.989249 -0.79768
252 1 3.25087 10.74 1.02516 3.25087 10.74 1.02516 -1.61895 -0.0333953 0.873931
289 1 3.41305 11.7249 16.6317 3.41305 11.7249 -0.125936 0.640011 -0.403278 -0.570388
291 1 4.14487 11.6059 0.876004 4.14487 11.6059 0.876004 -0.374456 -0.318702 0.0134894
254 1 5.79701 10.7726 0.0755148 5.79701 10.7726 0.0755148 1.26741 -0.387838 -0.259208
256 1 5.04242 10.9114 0.912389 5.04242 10.9114 0.912389 -0.257137 -0.602939 -0.507731
293 1 5.08638 11.5861 0.0721279 5.08638 11.5861 0.0721279 -0.65433 -0.534 0.0623119
295 1 5.76616 11.7564 1.00548 5.76616 11.7564 1.00548 -1.22843 -0.268846 0.542124
258 1 7.50331 11.0815 0.0199972 7.50331 11.0815 0.0199972 0.322124 -0.0577301 0.726996
260 1 6.67739 10.8892 1.09709 6.67739 10.8892 1.09709 -0.259638 0.203607 0.813239
297 1 6.70801 11.6419 0.202858 6.70801 11.6419 0.202858 -0.18075 0.355937 0.727414
299 1 7.40391 11.7688 1.05799 7.40391 11.7688 1.05799 1.0666 -1.58161 0.733941
264 1 8.31488 11.1716 0.706707 8.31488 11.1716 0.706707 -0.395462 0.754755 -0.444265
301 1 8.46064 11.8178 16.6168 8.46064 11.8178 -0.140879 -0.472389 0.619319 0.11839
262 1 9.11074 10.891 16.6548 9.11074 10.891 -0.102915 -0.0723338 -0.262231 -0.129835
268 1 10.3041 10.7934 1.02259 10.3041 10.7934 1.02259 0.104978 0.05274 -0.46346
303 1 9.12786 11.8441 0.836415 9.12786 11.8441 0.836415 0.932629 -0.485971 1.31331
305 1 9.8133 11.6262 0.0506097 9.8133 11.6262 0.0506097 -0.329525 0.03602 0.88723
266 1 10.9054 10.9086 16.6622 10.9054 10.9086 -0.0955048 0.240516 0.870466 -0.0419854
272 1 11.6634 11.0268 0.792134 11.6634 11.0268 0.792134 0.468103 0.517013 0.928653
307 1 10.9514 11.7975 1.03802 10.9514 11.7975 1.03802 1.32368 -0.750533 -0.342218
309 1 11.6714 11.7669 16.7573 11.6714 11.7669 -0.000415532 -0.703105 0.0339252 -0.802365
270 1 12.517 10.8317 16.6345 12.517 10.8317 -0.123215 -1.12565 1.05132 -0.434136
276 1 13.3474 11.0859 0.622756 13.3474 11.0859 0.622756 -0.550087 0.674418 0.2494
311 1 12.453 11.8681 0.982267 12.453 11.8681 0.982267 0.361664 0.555348 0.032316
313 1 13.3586 11.8434 16.6044 13.3586 11.8434 -0.153279 0.0311872 0.234222 -0.89741
274 1 14.0863 10.9538 16.6934 14.0863 10.9538 -0.0642587 -0.118674 0.453497 -1.01278
280 1 15.1597 11.0515 0.761843 15.1597 11.0515 0.761843 -0.778463 0.136303 -0.227276
315 1 14.3476 11.7654 0.581077 14.3476 11.7654 0.581077 -0.224734 -0.631581 0.730946
317 1 15.2941 11.7488 16.6345 15.2941 11.7488 -0.123124 -0.371538 -0.117606 0.825523
278 1 15.8087 10.9099 16.7126 15.8087 10.9099 -0.0450235 0.135253 0.495045 -0.866245
319 1 15.8012 11.851 0.80514 15.8012 11.851 0.80514 -0.0343205 0.52426 -0.656912
282 1 0.651249 12.5947 0.231639 0.651249 12.5947 0.231639 -1.5111 0.50505 0.685755
284 1 16.6211 12.6653 0.975144 -0.136603 12.6653 0.975144 -0.348222 1.46052 0.382915
321 1 16.6863 13.4339 0.199775 -0.0714094 13.4339 0.199775 0.900464 -0.311579 0.0673845
323 1 0.968462 13.4795 0.989754 0.968462 13.4795 0.989754 -1.06818 -0.827609 -0.324848
286 1 2.56184 12.504 0.147119 2.56184 12.504 0.147119 0.50885 -0.706219 -0.0686021
288 1 1.78005 12.3838 0.885439 1.78005 12.3838 0.885439 -1.36738 0.029872 -0.266887
325 1 1.66344 13.1695 0.0241042 1.66344 13.1695 0.0241042 0.693188 -0.639014 -0.400485
327 1 2.38017 13.2873 0.843522 2.38017 13.2873 0.843522 0.834106 -2.85198 -0.846314
290 1 4.28343 12.5625 16.7269 4.28343 12.5625 -0.0308041 1.44483 -0.0318513 0.118629
292 1 3.28941 12.4334 0.86462 3.28941 12.4334 0.86462 -0.981856 0.668821 1.28225
329 1 3.22261 13.2959 0.230941 3.22261 13.2959 0.230941 0.40736 -1.09064 0.489389
331 1 3.97019 13.4974 0.945612 3.97019 13.4974 0.945612 0.536784 -0.101235 -0.282965
294 1 5.82227 12.5886 0.0725145 5.82227 12.5886 0.0725145 0.277778 0.608494 0.352691
296 1 4.9597 12.4306 0.831652 4.9597 12.4306 0.831652 -0.150149 0.422732 0.250423
333 1 4.91379 13.4314 0.163667 4.91379 13.4314 0.163667 -0.487419 -0.813665 -0.168275
335 1 5.69177 13.5014 0.878664 5.69177 13.5014 0.878664 0.875014 0.322876 -0.327274
298 1 7.51982 12.4723 0.15063 7.51982 12.4723 0.15063 -1.11799 -1.66309 -0.0203807
300 1 6.56224 12.6183 0.902173 6.56224 12.6183 0.902173 -1.04034 0.319394 0.218084
337 1 6.64918 13.3609 16.7214 6.64918 13.3609 -0.0362449 -0.0769308 -1.48966 -0.932282
339 1 7.50861 13.4907 0.780775 7.50861 13.4907 0.780775 -1.13854 0.221829 0.45756
304 1 8.36333 12.4747 0.821772 8.36333 12.4747 0.821772 0.0532706 -0.469557 0.40181
341 1 8.45267 13.4283 0.0373828 8.45267 13.4283 0.0373828 -1.49723 0.23355 0.567739
302 1 9.12554 12.6366 0.031073 9.12554 12.6366 0.031073 -0.125922 -0.807023 -0.839727
308 1 10.1505 12.5833 0.750753 10.1505 12.5833 0.750753 -0.386316 0.181861 0.284299
343 1 9.28595 13.4897 0.912557 9.28595 13.4897 0.912557 0.25252 -0.969088 0.652787
345 1 10.098 13.4184 16.6445 10.098 13.4184 -0.113149 -0.192359 0.970488 0.445089
306 1 11.0355 12.647 16.7003 11.0355 12.647 -0.0574153 0.585541 0.328065 -0.0590217
312 1 11.8012 12.872 0.874845 11.8012 12.872 0.874845 -0.0996404 -0.0124104 -1.25494
347 1 10.6931 13.445 0.781221 10.6931 13.445 0.781221 0.0329698 0.464927 -0.73739
349 1 11.8923 13.354 16.5167 11.8923 13.354 -0.240931 -0.48436 -0.0367985 -0.641889
310 1 12.6207 12.5953 16.7518 12.6207 12.5953 -0.00586125 0.694781 0.338773 -0.673446
316 1 13.4138 12.4146 0.835921 13.4138 12.4146 0.835921 0.643826 -1.0685 0.306615
351 1 12.7975 13.313 0.863629 12.7975 13.313 0.863629 0.294651 -0.257863 -0.0303799
353 1 13.3592 13.3335 16.7518 13.3592 13.3335 -0.00591641 -0.209739 1.00598 -0.812498
314 1 14.267 12.5942 16.6994 14.267 12.5942 -0.0583169 0.0153446 1.79439 -0.844732
320 1 14.9952 12.5566 0.90341 14.9952 12.5566 0.90341 -0.249016 -1.07113 0.105495
355 1 14.1074 13.4763 0.800952 14.1074 13.4763 0.800952 -0.750663 0.713127 0.68217
357 1 15.2236 13.324 0.029816 15.2236 13.324 0.029816 1.10207 -0.388758 0.0966085
318 1 15.9726 12.5411 16.714 15.9726 12.5411 -0.0436855 -0.542646 0.115645 0.206451
359 1 15.7827 13.3132 0.87679 15.7827 13.3132 0.87679 0.977151 0.0512745 0.804536
322 1 0.79717 14.1119 0.0431189 0.79717 14.1119 0.0431189 1.56749 -0.613414 -0.656839
324 1 16.7277 14.3678 0.723727 -0.0300143 14.3678 0.723727 -0.303851 0.523121 0.0308342
361 1 16.5559 15.1004 16.6309 -0.201775 15.1004 -0.126772 -0.358998 -0.446213 0.35329
363 1 0.914739 15.0506 0.7518 0.914739 15.0506 0.7518 -1.19132 -1.59737 0.242424
326 1 2.49279 14.0828 0.141732 2.49279 14.0828 0.141732 -0.138896 0.708549 0.487995
328 1 1.6978 14.2857 0.857561 1.6978 14.2857 0.857561 -0.537267 -0.424116 -1.03769
365 1 1.83333 14.9683 16.7347 1.83333 14.9683 -0.0229488 -0.17641 0.216466 -1.05303
367 1 2.57216 15.0809 0.86964 2.57216 15.0809 0.86964 -1.69564 -0.189425 1.9357
330 1 4.10117 14.0814 0.0194149 4.10117 14.0814 0.0194149 0.501269 0.316755 -0.635951
332 1 3.32033 14.3506 0.767628 3.32033 14.3506 0.767628 -0.255714 -0.187241 -0.671042
369 1 3.33534 15.1877 0.033878 3.33534 15.1877 0.033878 0.361831 -0.0695698 0.504567
371 1 4.15276 15.129 0.836996 4.15276 15.129 0.836996 0.343358 0.481088 -0.493419
334 1 5.94767 14.2536 0.124349 5.94767 14.2536 0.124349 -0.923387 1.31261 -1.16142