ITEM: TIMESTEP
100
ITEM: NUMBER OF ATOMS
500
ITEM: BOX BOUNDS pp pp pp
0.0000000000000000e+00 8.3979809569125372e+00
0.0000000000000000e+00 8.3979809569125372e+00
0.0000000000000000e+00 8.3979809569125372e+00
ITEM: ATOMS id type xs ys zs
1 1 0.014917 0.00414265 0.980849
2 1 0.0778607 0.105988 0.00414872
3 1 0.0970453 0.990436 0.0795333
4 1 0.965998 0.166814 0.144721
5 1 0.189977 0.0653189 0.011674
8 1 0.22282 0.0464524 0.143016
21 1 0.0187109 0.20954 0.0219595
23 1 0.153567 0.168313 0.139387
25 1 0.174399 0.193079 0.00465611
101 1 0.993106 0.959632 0.218372
102 1 0.109003 0.0657501 0.210285
105 1 0.190442 0.981734 0.249168
121 1 0.0614397 0.167172 0.222768
125 1 0.230807 0.193196 0.235275
6 1 0.320809 0.125148 0.996834
7 1 0.312276 0.00830466 0.0503142
9 1 0.421014 0.00890618 0.974381
12 1 0.465762 0.0789168 0.0652989
27 1 0.273512 0.178754 0.105462
29 1 0.382032 0.233678 0.00986668
106 1 0.310615 0.0899287 0.224828
109 1 0.411487 0.0193053 0.173845
129 1 0.398001 0.164684 0.152586
10 1 0.489654 0.156901 0.986603
11 1 0.521205 0.987161 0.126408
13 1 0.543061 0.988629 0.00778105
16 1 0.595381 0.0750359 0.0634704
31 1 0.486319 0.222944 0.0943614
33 1 0.63225 0.194319 0.0541506
110 1 0.515712 0.122932 0.176827
113 1 0.595757 0.0245231 0.219541
133 1 0.643376 0.131387 0.185527
14 1 0.644394 0.0824841 0.917165
15 1 0.691941 0.00621562 0.0200167
17 1 0.786352 0.991987 0.959919
20 1 0.822388 0.0353851 0.0702364
35 1 0.736016 0.137745 0.985628
37 1 0.848298 0.238417 0.94567
114 1 0.704972 0.0406093 0.154431
117 1 0.821647 0.964366 0.185383
137 1 0.761814 0.149592 0.147648
18 1 0.951094 0.114894 0.998962
19 1 0.963058 0.0134177 0.0907224
39 1 0.870396 0.154955 0.084822
118 1 0.892172 0.0638693 0.180104
22 1 0.102791 0.331706 0.0342889
24 1 0.0560042 0.260299 0.1518
28 1 0.197299 0.284143 0.11367
41 1 0.993266 0.377691 0.0460944
43 1 0.0915807 0.389904 0.141723
45 1 0.205741 0.43474 0.044679
122 1 0.136472 0.290603 0.234626
141 1 0.984873 0.377346 0.191004
145 1 0.218026 0.426397 0.18336
26 1 0.269954 0.327119 0.013127
32 1 0.396562 0.294957 0.129582
47 1 0.357205 0.443463 0.134054
49 1 0.395001 0.361753 0.00634316
126 1 0.293507 0.329254 0.197254
149 1 0.384083 0.378218 0.264049
30 1 0.492476 0.333223 0.066881
36 1 0.616492 0.266434 0.142476
51 1 0.486817 0.385818 0.174836
53 1 0.590043 0.36234 0.992332
130 1 0.480245 0.279169 0.226056
153 1 0.631775 0.390718 0.214506
34 1 0.713477 0.323791 0.965165
40 1 0.8024 0.251382 0.0762478
55 1 0.708656 0.334372 0.0963787
57 1 0.724603 0.44498 0.00255343
134 1 0.72956 0.258323 0.207937
157 1 0.804389 0.348882 0.182275
38 1 0.930123 0.275313 0.0932212
59 1 0.889038 0.402705 0.0875453
138 1 0.841028 0.232941 0.206465
42 1 0.0705176 0.533588 0.965854
44 1 0.0260546 0.498996 0.0740289
48 1 0.235417 0.536271 0.107911
61 1 0.96029 0.585147 0.991937
63 1 0.106209 0.588781 0.131411
65 1 0.194603 0.531938 0.964185
142 1 0.115878 0.491224 0.217779
161 1 0.987268 0.589836 0.223885
165 1 0.174963 0.617917 0.226724
46 1 0.314679 0.482641 0.0170296
52 1 0.438861 0.456205 0.0516161
67 1 0.377563 0.552192 0.140968
69 1 0.421883 0.555777 0.957321
146 1 0.303883 0.501392 0.234046
169 1 0.462083 0.618593 0.198953
50 1 0.529588 0.464441 0.950432
56 1 0.551062 0.470628 0.0653982
71 1 0.493154 0.589977 0.081141
73 1 0.605382 0.577978 0.0104347
150 1 0.447117 0.494009 0.206734
173 1 0.560873 0.538272 0.17612
54 1 0.716068 0.562806 0.971727
60 1 0.77746 0.450723 0.10476
75 1 0.635406 0.634319 0.115544
77 1 0.809629 0.635666 0.0189258
154 1 0.656645 0.464248 0.105626
177 1 0.791228 0.586061 0.167186
58 1 0.871906 0.521094 0.027836
79 1 0.907729 0.588658 0.110829
158 1 0.877562 0.497713 0.173375
62 1 0.0927413 0.697188 0.960121
64 1 0.0302738 0.687674 0.102888
68 1 0.158765 0.69349 0.0673897
81 1 0.0155699 0.784212 0.00891833
83 1 0.105333 0.828209 0.142966
85 1 0.150025 0.819788 0.988314
162 1 0.109668 0.727429 0.217853
181 1 0.995935 0.803562 0.219666
185 1 0.217526 0.840423 0.176239
66 1 0.282597 0.61124 0.0134322
72 1 0.396165 0.678019 0.125282
87 1 0.25592 0.753153 0.0928842
89 1 0.396341 0.788344 0.0279804
166 1 0.285236 0.677504 0.199832
189 1 0.349372 0.804399 0.157831
70 1 0.536989 0.677818 0.0247051
76 1 0.61285 0.761661 0.108539
91 1 0.49037 0.77741 0.123444
93 1 0.621297 0.771516 0.980974
170 1 0.543353 0.690955 0.183155
193 1 0.609035 0.786566 0.237419
74 1 0.722233 0.705118 0.0246117
80 1 0.843846 0.720755 0.105065
95 1 0.705951 0.84148 0.0913511
97 1 0.817315 0.805377 0.0251268
174 1 0.733648 0.72129 0.16113
197 1 0.806379 0.820959 0.157765
78 1 0.925675 0.69602 0.011582
99 1 0.9485 0.782293 0.103283
178 1 0.830334 0.683587 0.223151
82 1 0.124025 0.967999 0.91525
84 1 0.012461 0.891296 0.0828374
88 1 0.221186 0.938443 0.10188
182 1 0.0948506 0.882528 0.246134
86 1 0.290635 0.840354 0.0188338
92 1 0.406185 0.919457 0.0765637
186 1 0.306047 0.952333 0.187373
90 1 0.540578 0.847746 0.0361715
96 1 0.62567 0.94422 0.0945667
190 1 0.470902 0.894691 0.191286
94 1 0.709956 0.883665 0.976747
100 1 0.842617 0.910969 0.0816796
194 1 0.693009 0.884597 0.213093
98 1 0.893398 0.910753 0.984599
198 1 0.892638 0.880884 0.220813
103 1 0.0676329 0.945719 0.352511
104 1 0.0147634 0.0643884 0.30049
108 1 0.250653 0.117047 0.32527
123 1 0.142483 0.189939 0.310279
201 1 0.00726188 0.0292063 0.422455
202 1 0.125759 0.0705747 0.392416
205 1 0.230257 0.949579 0.507784
221 1 0.0281974 0.18008 0.363533
225 1 0.168235 0.17245 0.449118
107 1 0.310639 0.980436 0.311772
112 1 0.359915 0.0916777 0.358088
127 1 0.352695 0.228228 0.254462
206 1 0.275781 0.0787941 0.456308
209 1 0.364928 0.988714 0.424779
229 1 0.403655 0.207861 0.41065
111 1 0.464136 0.0520923 0.295675
116 1 0.587983 0.135528 0.291853
131 1 0.444739 0.171169 0.303489
210 1 0.477908 0.0866317 0.413803
213 1 0.557155 0.000830725 0.358411
233 1 0.529348 0.202057 0.380331
115 1 0.747551 0.0268377 0.268894
120 1 0.84763 0.133059 0.27028
135 1 0.704926 0.16206 0.29936
214 1 0.667146 0.116974 0.41541
217 1 0.770404 0.973255 0.408642
237 1 0.804181 0.268338 0.46321
119 1 0.860192 0.995966 0.30942
139 1 0.953416 0.235359 0.245904
218 1 0.898943 0.115518 0.380673
124 1 0.0178004 0.318453 0.310844
128 1 0.251059 0.271242 0.333584
143 1 0.136456 0.396886 0.333244
222 1 0.134668 0.284749 0.401008
241 1 0.987844 0.413445 0.384405
245 1 0.218342 0.368234 0.441769
132 1 0.48236 0.303076 0.381004
147 1 0.269131 0.384232 0.306273
226 1 0.349455 0.330096 0.412893
249 1 0.431746 0.437759 0.409883
136 1 0.610929 0.255617 0.264735
151 1 0.497629 0.389109 0.313228
230 1 0.589551 0.332821 0.406359
253 1 0.6912 0.340105 0.455552
140 1 0.800399 0.228151 0.350942
155 1 0.665575 0.367026 0.336441
234 1 0.6668 0.246231 0.385395
257 1 0.796079 0.375037 0.371462
159 1 0.879432 0.336097 0.291369
238 1 0.920377 0.296948 0.398488
144 1 0.933385 0.44951 0.275094
148 1 0.197144 0.506836 0.306677
163 1 0.0933618 0.581533 0.299118
242 1 0.0786823 0.535122 0.458568
261 1 0.983492 0.568068 0.35825
265 1 0.202397 0.626428 0.388619
152 1 0.399288 0.517117 0.317843
167 1 0.28012 0.610162 0.298138
246 1 0.297616 0.499814 0.375516
269 1 0.422674 0.588423 0.405737
156 1 0.550675 0.487526 0.303088
171 1 0.509511 0.613394 0.317609
250 1 0.537194 0.535913 0.42122
273 1 0.627968 0.57402 0.359605
160 1 0.819449 0.452095 0.277466
175 1 0.649785 0.515348 0.248878
254 1 0.742073 0.494723 0.361522
277 1 0.735301 0.600809 0.277312
179 1 0.866651 0.567553 0.295547
258 1 0.900129 0.488953 0.389343
164 1 0.936025 0.6665 0.307643
168 1 0.178263 0.718448 0.324417
183 1 0.0657936 0.798395 0.324705
262 1 0.0678351 0.680565 0.373528
281 1 0.949954 0.749756 0.393332
285 1 0.195633 0.849264 0.305576
172 1 0.403072 0.688403 0.303507
187 1 0.336104 0.840619 0.274287
266 1 0.279835 0.743449 0.375888
289 1 0.419174 0.815997 0.391065
176 1 0.617054 0.667849 0.27866
191 1 0.449557 0.786647 0.269179
270 1 0.497549 0.726153 0.379228
293 1 0.573769 0.8067 0.431113
180 1 0.740369 0.752684 0.288796
195 1 0.657387 0.891679 0.364748
274 1 0.674389 0.69168 0.405657
297 1 0.772662 0.812889 0.414759
199 1 0.88395 0.775893 0.286502
278 1 0.820046 0.697337 0.35457
184 1 0.974851 0.86723 0.328303
188 1 0.20268 0.962964 0.368617
282 1 0.0399167 0.806745 0.451422
192 1 0.425689 0.938123 0.314267
286 1 0.309157 0.878824 0.383826
196 1 0.547516 0.89496 0.302637
290 1 0.513827 0.921245 0.418545
200 1 0.801111 0.89516 0.318253
294 1 0.639461 0.929976 0.484487
298 1 0.896896 0.915202 0.438865
203 1 0.117584 0.922415 0.465785
204 1 0.952635 0.123427 0.49662
208 1 0.148373 0.067314 0.552398
223 1 0.0349049 0.230193 0.460883
301 1 0.0310521 0.0167911 0.578949
302 1 0.0791291 0.112899 0.65126
305 1 0.245911 0.972639 0.625891
321 1 0.0577389 0.153568 0.54689
325 1 0.173778 0.193786 0.614864
207 1 0.337631 0.0194215 0.550486
212 1 0.390311 0.122382 0.517286
227 1 0.279643 0.234131 0.44915
306 1 0.290333 0.160296 0.606775
309 1 0.367436 0.0534458 0.669801
329 1 0.397618 0.242104 0.547406
211 1 0.495217 0.0177336 0.504788
216 1 0.608244 0.117387 0.510466
231 1 0.50932 0.215246 0.499444
310 1 0.522875 0.114831 0.604767
313 1 0.595958 0.0133034 0.565214
333 1 0.631369 0.218854 0.632013
215 1 0.713059 0.0368225 0.506088
220 1 0.788134 0.125064 0.444657
235 1 0.709569 0.188361 0.542044
314 1 0.697344 0.0885289 0.641168
317 1 0.791722 0.995336 0.614449
337 1 0.830829 0.159857 0.580748
219 1 0.853827 0.00597971 0.5037
239 1 0.936061 0.240436 0.523301
318 1 0.915605 0.0569745 0.599798
224 1 0.00340166 0.341965 0.517222
228 1 0.188064 0.279067 0.530822
243 1 0.12049 0.413259 0.512306
322 1 0.0775013 0.275407 0.585202
341 1 0.986512 0.428263 0.596348
345 1 0.227493 0.450432 0.585631
232 1 0.446585 0.335774 0.489145
247 1 0.317751 0.420995 0.48135
326 1 0.312125 0.342512 0.576355
349 1 0.461663 0.448598 0.561379
236 1 0.62017 0.277416 0.526436
251 1 0.555432 0.424803 0.471392
330 1 0.52303 0.325931 0.582306
353 1 0.636701 0.389084 0.573238
240 1 0.739395 0.314196 0.573263
255 1 0.80368 0.456064 0.480024
334 1 0.694415 0.316454 0.701132
357 1 0.814501 0.397385 0.588608
259 1 0.87796 0.358292 0.496308
338 1 0.888541 0.300058 0.617482
244 1 0.941595 0.518994 0.499822
248 1 0.189729 0.497198 0.452523
263 1 0.15742 0.603533 0.510111
342 1 0.0910446 0.48519 0.617347
361 1 0.0374613 0.596508 0.589506
365 1 0.254768 0.563333 0.562807
252 1 0.37715 0.522822 0.513386
267 1 0.303728 0.598241 0.451562
346 1 0.348177 0.445837 0.626748
369 1 0.479608 0.585105 0.525882
256 1 0.684549 0.454116 0.466686
271 1 0.560292 0.655966 0.463145
350 1 0.615545 0.52008 0.537974
373 1 0.634016 0.625051 0.582785
260 1 0.826759 0.57431 0.410764
275 1 0.69768 0.585674 0.47576
354 1 0.7333 0.505512 0.568782
377 1 0.784354 0.609725 0.619832
279 1 0.909482 0.644673 0.43953
358 1 0.886635 0.514852 0.602832
264 1 0.00663615 0.628302 0.487771
268 1 0.239102 0.708441 0.547997
283 1 0.110581 0.715655 0.475761
362 1 0.133098 0.735817 0.593043
381 1 0.97672 0.789159 0.57424
385 1 0.248572 0.841084 0.570819
272 1 0.388485 0.702328 0.430992
287 1 0.339741 0.775096 0.525485
366 1 0.358852 0.632151 0.568572
389 1 0.424669 0.816878 0.627881
276 1 0.607034 0.734545 0.548802
291 1 0.473342 0.723299 0.511666
370 1 0.494472 0.719906 0.630704
393 1 0.56312 0.808561 0.655783
280 1 0.781493 0.673025 0.48381
295 1 0.689363 0.816216 0.515931
374 1 0.673654 0.769712 0.676425
397 1 0.780994 0.83452 0.616043
299 1 0.877136 0.788866 0.497667
378 1 0.878725 0.716133 0.582642
284 1 0.982153 0.900468 0.530442
288 1 0.175333 0.799411 0.430304
382 1 0.100207 0.867088 0.574721
292 1 0.399096 0.88844 0.480733
386 1 0.359552 0.914548 0.60584
296 1 0.522972 0.875963 0.537327
390 1 0.472415 0.960391 0.606132
300 1 0.782103 0.896512 0.504076
394 1 0.661733 0.931125 0.622136
398 1 0.891249 0.915768 0.600594
303 1 0.0604036 0.0110032 0.714592
304 1 0.992121 0.111397 0.731199
308 1 0.190182 0.0670558 0.686839
323 1 0.0667439 0.228375 0.708227
401 1 0.960869 0.964587 0.79927
402 1 0.0978654 0.113525 0.804927
405 1 0.224739 0.00136331 0.813063
421 1 0.964509 0.238836 0.793615
425 1 0.183645 0.188044 0.732266
307 1 0.350543 0.0154436 0.791154
312 1 0.411269 0.160171 0.658949
327 1 0.27764 0.261816 0.669551
406 1 0.316082 0.162214 0.738657
409 1 0.462426 0.972934 0.803283
429 1 0.392923 0.258291 0.754391
311 1 0.504101 0.0574281 0.723614
316 1 0.601385 0.112889 0.694899
331 1 0.512712 0.226933 0.705472
410 1 0.444063 0.156612 0.78165
413 1 0.614435 0.0421424 0.793331
433 1 0.637164 0.205926 0.784748
315 1 0.694424 0.989302 0.716086
320 1 0.841832 0.112889 0.700564
335 1 0.734517 0.182231 0.695782
414 1 0.733289 0.11637 0.803216
417 1 0.775133 0.00127386 0.813552
437 1 0.825772 0.209722 0.812852
319 1 0.877876 0.965835 0.710941
339 1 0.9562 0.189801 0.635605
418 1 0.886658 0.113815 0.810721
324 1 0.995135 0.339592 0.683218
328 1 0.164455 0.303276 0.677015
343 1 0.127083 0.420799 0.705429
422 1 0.0745711 0.319325 0.782012
441 1 0.00197452 0.402761 0.80756
445 1 0.178284 0.365716 0.788941
332 1 0.402916 0.330517 0.652779
347 1 0.283483 0.411318 0.795936
426 1 0.261516 0.269526 0.793021
449 1 0.458371 0.392803 0.772734
336 1 0.587603 0.326701 0.733441
351 1 0.529538 0.458689 0.665534
430 1 0.502349 0.275258 0.821155
453 1 0.560709 0.41214 0.845693
340 1 0.842158 0.249054 0.709775
355 1 0.644663 0.43058 0.703392
434 1 0.723983 0.287669 0.802422
457 1 0.795802 0.369361 0.731466
359 1 0.904928 0.404714 0.686209
438 1 0.89638 0.327429 0.797459
344 1 0.0405351 0.540835 0.705135
348 1 0.201429 0.513981 0.712554
363 1 0.175651 0.63069 0.625362
442 1 0.997004 0.511139 0.840783
461 1 0.953957 0.614272 0.779052
465 1 0.169445 0.631802 0.77533
352 1 0.407842 0.530698 0.676108
367 1 0.308935 0.607618 0.674216
446 1 0.326479 0.525344 0.805161
469 1 0.390744 0.641929 0.83599
356 1 0.630141 0.550681 0.698378
371 1 0.529593 0.600153 0.658892
450 1 0.516454 0.51794 0.770124
473 1 0.618919 0.606013 0.81185
360 1 0.756489 0.495761 0.703194
375 1 0.710488 0.643155 0.730385
454 1 0.678038 0.499678 0.794764
477 1 0.83532 0.596235 0.769619
379 1 0.906991 0.630863 0.659461
458 1 0.895572 0.461519 0.830479
364 1 0.0345619 0.72533 0.672781
368 1 0.229449 0.734973 0.671567
383 1 0.15064 0.803382 0.752235
462 1 0.0437678 0.71607 0.793701
481 1 0.00982907 0.831103 0.727741
485 1 0.182653 0.779114 0.871153
372 1 0.355768 0.727976 0.646192
387 1 0.294313 0.83449 0.693193
466 1 0.276353 0.682355 0.77876
489 1 0.363569 0.767996 0.810537
376 1 0.603406 0.692613 0.71006
391 1 0.484528 0.808843 0.745504
470 1 0.50648 0.669039 0.777892
493 1 0.574351 0.774297 0.822592
380 1 0.797298 0.716922 0.681486
395 1 0.625867 0.866386 0.752504
474 1 0.683005 0.726663 0.800152
497 1 0.812624 0.770423 0.795381
399 1 0.899977 0.813955 0.657584
478 1 0.917851 0.739289 0.757424
384 1 0.00698336 0.914402 0.639707
388 1 0.166383 0.926354 0.725745
482 1 0.0834754 0.920358 0.816779
392 1 0.396048 0.897946 0.718523
486 1 0.275885 0.869172 0.803958
396 1 0.526187 0.915886 0.701672
490 1 0.479009 0.845162 0.867323
400 1 0.795365 0.881238 0.756974
494 1 0.560756 0.925233 0.824501
498 1 0.899899 0.854382 0.790291
403 1 0.151659 0.0900456 0.898547
404 1 0.0125272 0.0701501 0.890364
408 1 0.280641 0.118014 0.853907
423 1 0.092425 0.198091 0.906913
407 1 0.293458 0.00024698 0.91103
412 1 0.382609 0.191774 0.88998
427 1 0.267911 0.212892 0.936697
411 1 0.506241 0.0523985 0.898982
416 1 0.564448 0.162277 0.870241
431 1 0.505259 0.264929 0.96408
415 1 0.683024 0.947684 0.868576
420 1 0.842408 0.104526 0.918161
435 1 0.735103 0.207821 0.899627
419 1 0.910552 0.993842 0.901155
439 1 0.950245 0.188866 0.90389
424 1 0.967924 0.307811 0.922671
428 1 0.174858 0.303074 0.922835
443 1 0.113873 0.401231 0.925705
432 1 0.34157 0.317741 0.89929
447 1 0.249969 0.398357 0.920086
436 1 0.618551 0.264445 0.924787
451 1 0.460549 0.377027 0.892528
440 1 0.798596 0.321322 0.883482
455 1 0.673277 0.38703 0.836702
459 1 0.868785 0.416226 0.944516
444 1 0.991819 0.442408 0.937675
448 1 0.146977 0.510318 0.834469
463 1 0.0654821 0.605035 0.866781
452 1 0.389589 0.464505 0.884217
467 1 0.301237 0.541828 0.921588
456 1 0.62737 0.502602 0.901971
471 1 0.522139 0.57164 0.88046
460 1 0.775875 0.450301 0.842549
475 1 0.737751 0.600779 0.847652
479 1 0.868078 0.55786 0.882482
464 1 0.917018 0.685569 0.87439
468 1 0.217976 0.643019 0.897013
483 1 0.0573255 0.804915 0.895897
472 1 0.379878 0.674728 0.988842
487 1 0.302643 0.783206 0.915408
476 1 0.582884 0.672815 0.915225
491 1 0.467075 0.706628 0.895987
480 1 0.798009 0.707856 0.926785
495 1 0.702224 0.826939 0.861449
499 1 0.931489 0.802364 0.908145
484 1 0.987554 0.907573 0.895242
488 1 0.230634 0.897762 0.927732
492 1 0.361978 0.905278 0.954146
496 1 0.581146 0.879571 0.930847
500 1 0.808671 0.882172 0.882924
