ITEM: TIMESTEP
0
ITEM: NUMBER OF ATOMS
500
ITEM: BOX BOUNDS pp pp pp
0.0000000000000000e+00 8.3979809569125372e+00
0.0000000000000000e+00 8.3979809569125372e+00
0.0000000000000000e+00 8.3979809569125372e+00
ITEM: ATOMS id type xs ys zs
1 1 0 0 0
2 1 0.1 0.1 0
3 1 0.1 0 0.1
4 1 0 0.1 0.1
5 1 0.2 0 0
8 1 0.2 0.1 0.1
21 1 0 0.2 0
23 1 0.1 0.2 0.1
25 1 0.2 0.2 0
101 1 0 0 0.2
102 1 0.1 0.1 0.2
105 1 0.2 0 0.2
121 1 0 0.2 0.2
125 1 0.2 0.2 0.2
6 1 0.3 0.1 0
7 1 0.3 0 0.1
9 1 0.4 0 0
12 1 0.4 0.1 0.1
27 1 0.3 0.2 0.1
29 1 0.4 0.2 0
106 1 0.3 0.1 0.2
109 1 0.4 0 0.2
129 1 0.4 0.2 0.2
10 1 0.5 0.1 0
11 1 0.5 0 0.1
13 1 0.6 0 0
16 1 0.6 0.1 0.1
31 1 0.5 0.2 0.1
33 1 0.6 0.2 0
110 1 0.5 0.1 0.2
113 1 0.6 0 0.2
133 1 0.6 0.2 0.2
14 1 0.7 0.1 0
15 1 0.7 0 0.1
17 1 0.8 0 0
20 1 0.8 0.1 0.1
35 1 0.7 0.2 0.1
37 1 0.8 0.2 0
114 1 0.7 0.1 0.2
117 1 0.8 0 0.2
137 1 0.8 0.2 0.2
18 1 0.9 0.1 0
19 1 0.9 0 0.1
39 1 0.9 0.2 0.1
118 1 0.9 0.1 0.2
22 1 0.1 0.3 0
24 1 0 0.3 0.1
28 1 0.2 0.3 0.1
41 1 0 0.4 0
43 1 0.1 0.4 0.1
45 1 0.2 0.4 0
122 1 0.1 0.3 0.2
141 1 0 0.4 0.2
145 1 0.2 0.4 0.2
26 1 0.3 0.3 0
32 1 0.4 0.3 0.1
47 1 0.3 0.4 0.1
49 1 0.4 0.4 0
126 1 0.3 0.3 0.2
149 1 0.4 0.4 0.2
30 1 0.5 0.3 0
36 1 0.6 0.3 0.1
51 1 0.5 0.4 0.1
53 1 0.6 0.4 0
130 1 0.5 0.3 0.2
153 1 0.6 0.4 0.2
34 1 0.7 0.3 0
40 1 0.8 0.3 0.1
55 1 0.7 0.4 0.1
57 1 0.8 0.4 0
134 1 0.7 0.3 0.2
157 1 0.8 0.4 0.2
38 1 0.9 0.3 0
59 1 0.9 0.4 0.1
138 1 0.9 0.3 0.2
42 1 0.1 0.5 0
44 1 0 0.5 0.1
48 1 0.2 0.5 0.1
61 1 0 0.6 0
63 1 0.1 0.6 0.1
65 1 0.2 0.6 0
142 1 0.1 0.5 0.2
161 1 0 0.6 0.2
165 1 0.2 0.6 0.2
46 1 0.3 0.5 0
52 1 0.4 0.5 0.1
67 1 0.3 0.6 0.1
69 1 0.4 0.6 0
146 1 0.3 0.5 0.2
169 1 0.4 0.6 0.2
50 1 0.5 0.5 0
56 1 0.6 0.5 0.1
71 1 0.5 0.6 0.1
73 1 0.6 0.6 0
150 1 0.5 0.5 0.2
173 1 0.6 0.6 0.2
54 1 0.7 0.5 0
60 1 0.8 0.5 0.1
75 1 0.7 0.6 0.1
77 1 0.8 0.6 0
154 1 0.7 0.5 0.2
177 1 0.8 0.6 0.2
58 1 0.9 0.5 0
79 1 0.9 0.6 0.1
158 1 0.9 0.5 0.2
62 1 0.1 0.7 0
64 1 0 0.7 0.1
68 1 0.2 0.7 0.1
81 1 0 0.8 0
83 1 0.1 0.8 0.1
85 1 0.2 0.8 0
162 1 0.1 0.7 0.2
181 1 0 0.8 0.2
185 1 0.2 0.8 0.2
66 1 0.3 0.7 0
72 1 0.4 0.7 0.1
87 1 0.3 0.8 0.1
89 1 0.4 0.8 0
166 1 0.3 0.7 0.2
189 1 0.4 0.8 0.2
70 1 0.5 0.7 0
76 1 0.6 0.7 0.1
91 1 0.5 0.8 0.1
93 1 0.6 0.8 0
170 1 0.5 0.7 0.2
193 1 0.6 0.8 0.2
74 1 0.7 0.7 0
80 1 0.8 0.7 0.1
95 1 0.7 0.8 0.1
97 1 0.8 0.8 0
174 1 0.7 0.7 0.2
197 1 0.8 0.8 0.2
78 1 0.9 0.7 0
99 1 0.9 0.8 0.1
178 1 0.9 0.7 0.2
82 1 0.1 0.9 0
84 1 0 0.9 0.1
88 1 0.2 0.9 0.1
182 1 0.1 0.9 0.2
86 1 0.3 0.9 0
92 1 0.4 0.9 0.1
186 1 0.3 0.9 0.2
90 1 0.5 0.9 0
96 1 0.6 0.9 0.1
190 1 0.5 0.9 0.2
94 1 0.7 0.9 0
100 1 0.8 0.9 0.1
194 1 0.7 0.9 0.2
98 1 0.9 0.9 0
198 1 0.9 0.9 0.2
103 1 0.1 0 0.3
104 1 0 0.1 0.3
108 1 0.2 0.1 0.3
123 1 0.1 0.2 0.3
201 1 0 0 0.4
202 1 0.1 0.1 0.4
205 1 0.2 0 0.4
221 1 0 0.2 0.4
225 1 0.2 0.2 0.4
107 1 0.3 0 0.3
112 1 0.4 0.1 0.3
127 1 0.3 0.2 0.3
206 1 0.3 0.1 0.4
209 1 0.4 0 0.4
229 1 0.4 0.2 0.4
111 1 0.5 0 0.3
116 1 0.6 0.1 0.3
131 1 0.5 0.2 0.3
210 1 0.5 0.1 0.4
213 1 0.6 0 0.4
233 1 0.6 0.2 0.4
115 1 0.7 0 0.3
120 1 0.8 0.1 0.3
135 1 0.7 0.2 0.3
214 1 0.7 0.1 0.4
217 1 0.8 0 0.4
237 1 0.8 0.2 0.4
119 1 0.9 0 0.3
139 1 0.9 0.2 0.3
218 1 0.9 0.1 0.4
124 1 0 0.3 0.3
128 1 0.2 0.3 0.3
143 1 0.1 0.4 0.3
222 1 0.1 0.3 0.4
241 1 0 0.4 0.4
245 1 0.2 0.4 0.4
132 1 0.4 0.3 0.3
147 1 0.3 0.4 0.3
226 1 0.3 0.3 0.4
249 1 0.4 0.4 0.4
136 1 0.6 0.3 0.3
151 1 0.5 0.4 0.3
230 1 0.5 0.3 0.4
253 1 0.6 0.4 0.4
140 1 0.8 0.3 0.3
155 1 0.7 0.4 0.3
234 1 0.7 0.3 0.4
257 1 0.8 0.4 0.4
159 1 0.9 0.4 0.3
238 1 0.9 0.3 0.4
144 1 0 0.5 0.3
148 1 0.2 0.5 0.3
163 1 0.1 0.6 0.3
242 1 0.1 0.5 0.4
261 1 0 0.6 0.4
265 1 0.2 0.6 0.4
152 1 0.4 0.5 0.3
167 1 0.3 0.6 0.3
246 1 0.3 0.5 0.4
269 1 0.4 0.6 0.4
156 1 0.6 0.5 0.3
171 1 0.5 0.6 0.3
250 1 0.5 0.5 0.4
273 1 0.6 0.6 0.4
160 1 0.8 0.5 0.3
175 1 0.7 0.6 0.3
254 1 0.7 0.5 0.4
277 1 0.8 0.6 0.4
179 1 0.9 0.6 0.3
258 1 0.9 0.5 0.4
164 1 0 0.7 0.3
168 1 0.2 0.7 0.3
183 1 0.1 0.8 0.3
262 1 0.1 0.7 0.4
281 1 0 0.8 0.4
285 1 0.2 0.8 0.4
172 1 0.4 0.7 0.3
187 1 0.3 0.8 0.3
266 1 0.3 0.7 0.4
289 1 0.4 0.8 0.4
176 1 0.6 0.7 0.3
191 1 0.5 0.8 0.3
270 1 0.5 0.7 0.4
293 1 0.6 0.8 0.4
180 1 0.8 0.7 0.3
195 1 0.7 0.8 0.3
274 1 0.7 0.7 0.4
297 1 0.8 0.8 0.4
199 1 0.9 0.8 0.3
278 1 0.9 0.7 0.4
184 1 0 0.9 0.3
188 1 0.2 0.9 0.3
282 1 0.1 0.9 0.4
192 1 0.4 0.9 0.3
286 1 0.3 0.9 0.4
196 1 0.6 0.9 0.3
290 1 0.5 0.9 0.4
200 1 0.8 0.9 0.3
294 1 0.7 0.9 0.4
298 1 0.9 0.9 0.4
203 1 0.1 0 0.5
204 1 0 0.1 0.5
208 1 0.2 0.1 0.5
223 1 0.1 0.2 0.5
301 1 0 0 0.6
302 1 0.1 0.1 0.6
305 1 0.2 0 0.6
321 1 0 0.2 0.6
325 1 0.2 0.2 0.6
207 1 0.3 0 0.5
212 1 0.4 0.1 0.5
227 1 0.3 0.2 0.5
306 1 0.3 0.1 0.6
309 1 0.4 0 0.6
329 1 0.4 0.2 0.6
211 1 0.5 0 0.5
216 1 0.6 0.1 0.5
231 1 0.5 0.2 0.5
310 1 0.5 0.1 0.6
313 1 0.6 0 0.6
333 1 0.6 0.2 0.6
215 1 0.7 0 0.5
220 1 0.8 0.1 0.5
235 1 0.7 0.2 0.5
314 1 0.7 0.1 0.6
317 1 0.8 0 0.6
337 1 0.8 0.2 0.6
219 1 0.9 0 0.5
239 1 0.9 0.2 0.5
318 1 0.9 0.1 0.6
224 1 0 0.3 0.5
228 1 0.2 0.3 0.5
243 1 0.1 0.4 0.5
322 1 0.1 0.3 0.6
341 1 0 0.4 0.6
345 1 0.2 0.4 0.6
232 1 0.4 0.3 0.5
247 1 0.3 0.4 0.5
326 1 0.3 0.3 0.6
349 1 0.4 0.4 0.6
236 1 0.6 0.3 0.5
251 1 0.5 0.4 0.5
330 1 0.5 0.3 0.6
353 1 0.6 0.4 0.6
240 1 0.8 0.3 0.5
255 1 0.7 0.4 0.5
334 1 0.7 0.3 0.6
357 1 0.8 0.4 0.6
259 1 0.9 0.4 0.5
338 1 0.9 0.3 0.6
244 1 0 0.5 0.5
248 1 0.2 0.5 0.5
263 1 0.1 0.6 0.5
342 1 0.1 0.5 0.6
361 1 0 0.6 0.6
365 1 0.2 0.6 0.6
252 1 0.4 0.5 0.5
267 1 0.3 0.6 0.5
346 1 0.3 0.5 0.6
369 1 0.4 0.6 0.6
256 1 0.6 0.5 0.5
271 1 0.5 0.6 0.5
350 1 0.5 0.5 0.6
373 1 0.6 0.6 0.6
260 1 0.8 0.5 0.5
275 1 0.7 0.6 0.5
354 1 0.7 0.5 0.6
377 1 0.8 0.6 0.6
279 1 0.9 0.6 0.5
358 1 0.9 0.5 0.6
264 1 0 0.7 0.5
268 1 0.2 0.7 0.5
283 1 0.1 0.8 0.5
362 1 0.1 0.7 0.6
381 1 0 0.8 0.6
385 1 0.2 0.8 0.6
272 1 0.4 0.7 0.5
287 1 0.3 0.8 0.5
366 1 0.3 0.7 0.6
389 1 0.4 0.8 0.6
276 1 0.6 0.7 0.5
291 1 0.5 0.8 0.5
370 1 0.5 0.7 0.6
393 1 0.6 0.8 0.6
280 1 0.8 0.7 0.5
295 1 0.7 0.8 0.5
374 1 0.7 0.7 0.6
397 1 0.8 0.8 0.6
299 1 0.9 0.8 0.5
378 1 0.9 0.7 0.6
284 1 0 0.9 0.5
288 1 0.2 0.9 0.5
382 1 0.1 0.9 0.6
292 1 0.4 0.9 0.5
386 1 0.3 0.9 0.6
296 1 0.6 0.9 0.5
390 1 0.5 0.9 0.6
300 1 0.8 0.9 0.5
394 1 0.7 0.9 0.6
398 1 0.9 0.9 0.6
303 1 0.1 0 0.7
304 1 0 0.1 0.7
308 1 0.2 0.1 0.7
323 1 0.1 0.2 0.7
401 1 0 0 0.8
402 1 0.1 0.1 0.8
405 1 0.2 0 0.8
421 1 0 0.2 0.8
425 1 0.2 0.2 0.8
307 1 0.3 0 0.7
312 1 0.4 0.1 0.7
327 1 0.3 0.2 0.7
406 1 0.3 0.1 0.8
409 1 0.4 0 0.8
429 1 0.4 0.2 0.8
311 1 0.5 0 0.7
316 1 0.6 0.1 0.7
331 1 0.5 0.2 0.7
410 1 0.5 0.1 0.8
413 1 0.6 0 0.8
433 1 0.6 0.2 0.8
315 1 0.7 0 0.7
320 1 0.8 0.1 0.7
335 1 0.7 0.2 0.7
414 1 0.7 0.1 0.8
417 1 0.8 0 0.8
437 1 0.8 0.2 0.8
319 1 0.9 0 0.7
339 1 0.9 0.2 0.7
418 1 0.9 0.1 0.8
324 1 0 0.3 0.7
328 1 0.2 0.3 0.7
343 1 0.1 0.4 0.7
422 1 0.1 0.3 0.8
441 1 0 0.4 0.8
445 1 0.2 0.4 0.8
332 1 0.4 0.3 0.7
347 1 0.3 0.4 0.7
426 1 0.3 0.3 0.8
449 1 0.4 0.4 0.8
336 1 0.6 0.3 0.7
351 1 0.5 0.4 0.7
430 1 0.5 0.3 0.8
453 1 0.6 0.4 0.8
340 1 0.8 0.3 0.7
355 1 0.7 0.4 0.7
434 1 0.7 0.3 0.8
457 1 0.8 0.4 0.8
359 1 0.9 0.4 0.7
438 1 0.9 0.3 0.8
344 1 0 0.5 0.7
348 1 0.2 0.5 0.7
363 1 0.1 0.6 0.7
442 1 0.1 0.5 0.8
461 1 0 0.6 0.8
465 1 0.2 0.6 0.8
352 1 0.4 0.5 0.7
367 1 0.3 0.6 0.7
446 1 0.3 0.5 0.8
469 1 0.4 0.6 0.8
356 1 0.6 0.5 0.7
371 1 0.5 0.6 0.7
450 1 0.5 0.5 0.8
473 1 0.6 0.6 0.8
360 1 0.8 0.5 0.7
375 1 0.7 0.6 0.7
454 1 0.7 0.5 0.8
477 1 0.8 0.6 0.8
379 1 0.9 0.6 0.7
458 1 0.9 0.5 0.8
364 1 0 0.7 0.7
368 1 0.2 0.7 0.7
383 1 0.1 0.8 0.7
462 1 0.1 0.7 0.8
481 1 0 0.8 0.8
485 1 0.2 0.8 0.8
372 1 0.4 0.7 0.7
387 1 0.3 0.8 0.7
466 1 0.3 0.7 0.8
489 1 0.4 0.8 0.8
376 1 0.6 0.7 0.7
391 1 0.5 0.8 0.7
470 1 0.5 0.7 0.8
493 1 0.6 0.8 0.8
380 1 0.8 0.7 0.7
395 1 0.7 0.8 0.7
474 1 0.7 0.7 0.8
497 1 0.8 0.8 0.8
399 1 0.9 0.8 0.7
478 1 0.9 0.7 0.8
384 1 0 0.9 0.7
388 1 0.2 0.9 0.7
482 1 0.1 0.9 0.8
392 1 0.4 0.9 0.7
486 1 0.3 0.9 0.8
396 1 0.6 0.9 0.7
490 1 0.5 0.9 0.8
400 1 0.8 0.9 0.7
494 1 0.7 0.9 0.8
498 1 0.9 0.9 0.8
403 1 0.1 0 0.9
404 1 0 0.1 0.9
408 1 0.2 0.1 0.9
423 1 0.1 0.2 0.9
407 1 0.3 0 0.9
412 1 0.4 0.1 0.9
427 1 0.3 0.2 0.9
411 1 0.5 0 0.9
416 1 0.6 0.1 0.9
431 1 0.5 0.2 0.9
415 1 0.7 0 0.9
420 1 0.8 0.1 0.9
435 1 0.7 0.2 0.9
419 1 0.9 0 0.9
439 1 0.9 0.2 0.9
424 1 0 0.3 0.9
428 1 0.2 0.3 0.9
443 1 0.1 0.4 0.9
432 1 0.4 0.3 0.9
447 1 0.3 0.4 0.9
436 1 0.6 0.3 0.9
451 1 0.5 0.4 0.9
440 1 0.8 0.3 0.9
455 1 0.7 0.4 0.9
459 1 0.9 0.4 0.9
444 1 0 0.5 0.9
448 1 0.2 0.5 0.9
463 1 0.1 0.6 0.9
452 1 0.4 0.5 0.9
467 1 0.3 0.6 0.9
456 1 0.6 0.5 0.9
471 1 0.5 0.6 0.9
460 1 0.8 0.5 0.9
475 1 0.7 0.6 0.9
479 1 0.9 0.6 0.9
464 1 0 0.7 0.9
468 1 0.2 0.7 0.9
483 1 0.1 0.8 0.9
472 1 0.4 0.7 0.9
487 1 0.3 0.8 0.9
476 1 0.6 0.7 0.9
491 1 0.5 0.8 0.9
480 1 0.8 0.7 0.9
495 1 0.7 0.8 0.9
499 1 0.9 0.8 0.9
484 1 0 0.9 0.9
488 1 0.2 0.9 0.9
492 1 0.4 0.9 0.9
496 1 0.6 0.9 0.9
500 1 0.8 0.9 0.9
