ITEM: TIMESTEP
150
ITEM: NUMBER OF ATOMS
4000
ITEM: BOX BOUNDS pp pp pp
0.0000000000000000e+00 1.6757672110741936e+01
0.0000000000000000e+00 1.6757672110741936e+01
0.0000000000000000e+00 1.6757672110741936e+01
ITEM: ATOMS id type x y z xu yu zu vx vy vz
1 1 16.4334 0.0689288 16.7409 -0.324287 0.0689288 -0.0167629 0.646961 -0.882035 -0.519906
2 1 0.810801 0.749111 0.00831041 0.810801 0.749111 0.00831041 -1.64937 0.0653129 0.832344
3 1 0.93633 16.6687 0.781581 0.93633 -0.0890047 0.781581 0.551596 -0.0189994 -0.056677
4 1 16.7332 0.860984 0.806053 -0.0244571 0.860984 0.806053 -0.92164 -0.186764 -1.27345
5 1 1.7461 16.4189 16.55 1.7461 -0.33881 -0.207705 1.33166 -2.25533 0.0649594
6 1 2.58496 0.724262 16.5988 2.58496 0.724262 -0.158838 -0.0495342 -0.761967 0.463208
7 1 2.43556 16.6644 0.65936 2.43556 -0.0932596 0.65936 0.664879 -1.00415 1.25569
8 1 1.86421 0.901883 0.667934 1.86421 0.901883 0.667934 0.865987 0.153456 0.155864
9 1 3.25618 16.6491 16.7127 3.25618 -0.108605 -0.0449551 -0.35557 1.53633 0.475687
10 1 3.98008 1.01475 16.7112 3.98008 1.01475 -0.0464378 0.205732 -0.285138 -0.861392
11 1 4.13021 0.111307 0.695009 4.13021 0.111307 0.695009 -0.509358 0.332397 0.253178
12 1 3.22641 0.626266 0.704872 3.22641 0.626266 0.704872 -0.0242555 1.15265 -1.27597
13 1 4.99565 0.0255406 16.6252 4.99565 0.0255406 -0.132487 -0.264497 0.017508 0.83319
14 1 5.94424 0.989248 16.5859 5.94424 0.989248 -0.17177 -0.864332 -0.950949 0.45629
15 1 5.76548 0.119303 0.692519 5.76548 0.119303 0.692519 0.860303 -0.599791 -0.0761622
16 1 4.92888 0.914013 0.695408 4.92888 0.914013 0.695408 0.375195 -0.248577 -1.91252
17 1 6.64446 0.0852804 16.6514 6.64446 0.0852804 -0.10625 -0.57613 -1.00115 -1.52552
18 1 7.56757 0.872532 16.6081 7.56757 0.872532 -0.149556 -1.19951 -0.005159 -0.341784
19 1 7.51787 16.7395 0.674019 7.51787 -0.0181875 0.674019 1.4703 1.37159 0.472191
20 1 6.80365 0.897059 0.841645 6.80365 0.897059 0.841645 0.581474 -0.550089 0.309584
21 1 8.51299 16.6468 0.117197 8.51299 -0.110885 0.117197 -0.808237 -0.180694 -0.132559
24 1 8.33836 0.865613 0.724279 8.33836 0.865613 0.724279 -0.739645 -0.848097 0.79662
22 1 9.22702 0.784378 0.0250841 9.22702 0.784378 0.0250841 -0.232103 0.252264 0.936511
23 1 9.25816 16.3441 0.819098 9.25816 -0.413562 0.819098 -1.04826 0.192249 -0.53948
25 1 10.1241 16.5722 0.195701 10.1241 -0.185511 0.195701 0.0166583 -0.26371 1.57454
28 1 10.0806 0.929046 0.833673 10.0806 0.929046 0.833673 -1.0291 0.537228 1.40014
26 1 10.7479 0.737681 16.5338 10.7479 0.737681 -0.223915 -0.971651 0.762512 -1.04603
27 1 11.0449 16.3616 1.0616 11.0449 -0.396097 1.0616 -0.213848 0.310712 0.109929
29 1 11.6741 0.0179696 0.117955 11.6741 0.0179696 0.117955 0.154085 0.0882196 -0.0472344
32 1 11.7725 0.76346 0.907792 11.7725 0.76346 0.907792 -0.724493 0.934846 -0.0724005
30 1 12.7483 0.46986 16.5891 12.7483 0.46986 -0.16859 -0.99414 0.922326 -1.0696
31 1 12.596 16.7474 0.856917 12.596 -0.0102547 0.856917 0.189901 0.330068 0.143824
33 1 13.5417 16.5765 16.6472 13.5417 -0.181163 -0.110459 -0.900747 -0.396967 0.950947
36 1 13.2787 0.880118 0.948237 13.2787 0.880118 0.948237 0.167726 0.993536 -0.480423
34 1 14.2024 0.788782 0.244549 14.2024 0.788782 0.244549 0.312639 0.198574 -1.05455
35 1 14.303 16.692 0.895473 14.303 -0.0656749 0.895473 -0.787496 -0.500633 -0.797364
37 1 15.1492 0.0786659 0.01371 15.1492 0.0786659 0.01371 0.50877 0.45148 0.122625
40 1 14.9869 0.786443 0.870997 14.9869 0.786443 0.870997 -0.538698 0.213258 0.914336
38 1 15.8755 0.916475 0.215854 15.8755 0.916475 0.215854 0.484751 -0.28976 0.0756115
39 1 15.8616 0.208503 0.96239 15.8616 0.208503 0.96239 -0.14697 -1.76294 -1.04091
41 1 16.68 1.70237 0.188086 -0.0777027 1.70237 0.188086 -0.371067 0.205972 0.750035
42 1 0.60996 2.58687 16.6481 0.60996 2.58687 -0.109593 0.985165 0.082288 -0.533422
43 1 0.955454 1.98392 0.642103 0.955454 1.98392 0.642103 0.163524 0.019648 -0.818926
44 1 16.5587 2.57431 0.787311 -0.199009 2.57431 0.787311 0.206691 -0.107069 0.165538
45 1 1.67256 1.65613 16.6082 1.67256 1.65613 -0.149439 -0.512744 0.828301 0.0432896
46 1 2.42283 2.43107 16.5743 2.42283 2.43107 -0.183403 -1.10715 0.404792 -0.377196
47 1 2.87423 1.58867 0.698396 2.87423 1.58867 0.698396 -1.39852 -0.994576 0.974597
48 1 1.94024 2.15969 0.792879 1.94024 2.15969 0.792879 -0.597812 0.392094 0.108092
49 1 3.35951 1.91294 16.5872 3.35951 1.91294 -0.170428 0.417675 0.821114 -0.628513
50 1 4.175 2.61487 16.7507 4.175 2.61487 -0.0069898 0.407018 1.25945 0.026145
51 1 3.99471 1.89821 0.758807 3.99471 1.89821 0.758807 -0.875966 0.69477 -0.0744758
52 1 3.32542 2.59151 0.698417 3.32542 2.59151 0.698417 -0.220209 -0.923004 0.347932
53 1 5.00912 1.70345 16.6864 5.00912 1.70345 -0.0712697 -0.499904 0.149858 0.809493
54 1 5.83954 2.50026 16.6727 5.83954 2.50026 -0.0849882 -0.237128 -0.0593069 -0.799099
55 1 5.84476 1.69172 0.672961 5.84476 1.69172 0.672961 0.816761 0.0686041 -1.14262
56 1 4.99037 2.52125 0.719443 4.99037 2.52125 0.719443 0.0212221 -0.202866 0.469188
57 1 6.62033 1.83283 16.5672 6.62033 1.83283 -0.190447 0.147074 -0.640092 -0.673425
58 1 7.49047 2.52572 0.0195295 7.49047 2.52572 0.0195295 0.653746 0.53845 -0.882526
59 1 7.50415 1.65128 0.692409 7.50415 1.65128 0.692409 -1.32166 0.973155 1.52971
60 1 6.63883 2.58356 0.688705 6.63883 2.58356 0.688705 -0.2695 0.585969 -0.880848
61 1 8.34704 1.75891 0.031724 8.34704 1.75891 0.031724 0.0885335 0.62151 0.894682
64 1 8.41087 2.43349 0.880093 8.41087 2.43349 0.880093 0.383028 -0.521838 -0.274388
62 1 9.14166 2.46831 16.7424 9.14166 2.46831 -0.0152777 1.51556 -1.03467 0.432109
63 1 9.34512 1.64531 0.969707 9.34512 1.64531 0.969707 0.442377 -0.696431 -0.979327
65 1 9.92759 1.67228 16.6358 9.92759 1.67228 -0.121829 0.116945 -0.414835 -0.630342
68 1 10.0789 2.43569 0.891963 10.0789 2.43569 0.891963 1.33443 -0.732474 -0.765623
66 1 10.9757 2.42626 16.6376 10.9757 2.42626 -0.120111 -0.44416 -0.408206 0.101884
67 1 11.0077 1.51764 0.857574 11.0077 1.51764 0.857574 -0.816138 -0.800557 -0.116733
69 1 11.9128 1.5726 0.057206 11.9128 1.5726 0.057206 0.0190748 -0.833523 -0.161594
72 1 11.8294 2.40073 0.846742 11.8294 2.40073 0.846742 0.854695 -1.16738 -0.860702
70 1 12.7594 2.49167 16.7317 12.7594 2.49167 -0.0259346 0.471051 -1.09031 1.01032
71 1 12.8013 1.8265 0.9017 12.8013 1.8265 0.9017 0.254207 0.92264 0.1907
73 1 13.5066 1.52543 0.0968566 13.5066 1.52543 0.0968566 -0.0623383 0.776105 -0.310791
76 1 13.4657 2.67378 0.799637 13.4657 2.67378 0.799637 -0.196036 0.636817 -0.234425
74 1 14.2152 2.31626 16.7147 14.2152 2.31626 -0.0429841 -0.558336 0.37535 1.19148
75 1 14.1873 1.76879 0.848959 14.1873 1.76879 0.848959 0.661812 -0.432563 0.105844
77 1 15.2157 1.70538 0.0731858 15.2157 1.70538 0.0731858 0.672489 -0.0673505 -0.499283
80 1 14.9609 2.55612 0.86308 14.9609 2.55612 0.86308 1.04821 -0.118141 0.347033
78 1 15.8467 2.50069 16.6559 15.8467 2.50069 -0.101774 0.280292 -0.173254 -0.0531357
79 1 15.8623 1.81413 0.856466 15.8623 1.81413 0.856466 -0.0742993 1.04019 0.687238
81 1 16.6899 3.39731 16.6714 -0.0678095 3.39731 -0.0862704 0.448073 -0.247419 0.105927
82 1 0.764925 4.04845 16.6659 0.764925 4.04845 -0.0917268 0.932597 1.35426 -1.12511
83 1 0.628029 3.3725 0.766116 0.628029 3.3725 0.766116 -0.997153 -0.0577778 0.35393
84 1 16.6127 4.22057 0.755892 -0.144991 4.22057 0.755892 -0.797058 -0.491187 0.746646
85 1 1.64641 3.12075 0.066206 1.64641 3.12075 0.066206 1.22226 0.122368 0.22806
86 1 2.37406 4.13288 0.0272443 2.37406 4.13288 0.0272443 -0.201661 -0.686629 -1.17696
87 1 2.43716 3.24323 0.753317 2.43716 3.24323 0.753317 0.283963 -0.312553 0.650043
88 1 1.55488 4.06968 0.791868 1.55488 4.06968 0.791868 0.58856 0.447653 -1.02693
89 1 3.34503 3.4551 16.6653 3.34503 3.4551 -0.0923222 -0.911428 -0.857067 -0.983505
90 1 4.19948 4.26531 16.6952 4.19948 4.26531 -0.0625067 -0.341355 0.169899 0.445231
91 1 4.21121 3.44852 0.636915 4.21121 3.44852 0.636915 0.372107 0.175754 0.00422059
92 1 3.28696 4.29917 0.672216 3.28696 4.29917 0.672216 1.46665 1.08148 1.17726
93 1 5.13943 3.38012 16.6789 5.13943 3.38012 -0.0788113 0.406855 1.10766 -0.629868
94 1 5.93774 4.12677 16.5541 5.93774 4.12677 -0.20359 -1.18956 -0.659708 -0.16402
95 1 5.81163 3.38864 0.768682 5.81163 3.38864 0.768682 -0.537673 -1.08419 -0.0713379
96 1 5.04763 4.1444 0.756508 5.04763 4.1444 0.756508 0.642509 0.767446 -0.128497
97 1 6.61562 3.40075 16.7411 6.61562 3.40075 -0.0166112 0.0664866 -0.428266 -0.308707
98 1 7.51473 4.10785 0.0171071 7.51473 4.10785 0.0171071 -0.503729 -0.646097 -0.021577
99 1 7.46168 3.36851 0.743294 7.46168 3.36851 0.743294 1.47749 -0.321032 0.507357
100 1 6.63815 4.04895 0.860187 6.63815 4.04895 0.860187 0.283597 -0.411278 0.965934
101 1 8.35294 3.25735 16.7218 8.35294 3.25735 -0.0358912 0.826039 -0.892943 -0.339072
104 1 8.42588 4.04233 0.772137 8.42588 4.04233 0.772137 0.0181829 0.0634725 1.74647
102 1 9.44227 3.92977 0.129214 9.44227 3.92977 0.129214 0.542004 -0.123307 0.735523
103 1 9.37307 3.29281 0.900531 9.37307 3.29281 0.900531 -0.061021 -0.760408 0.575859
105 1 10.1316 3.17875 0.0937871 10.1316 3.17875 0.0937871 -0.160116 -1.02356 -1.13332
108 1 10.1691 4.04825 0.956563 10.1691 4.04825 0.956563 0.968378 0.803877 0.0259252
106 1 10.9042 4.07103 0.0771351 10.9042 4.07103 0.0771351 0.579156 -0.0659241 -0.3794
107 1 11.12 3.25077 0.75908 11.12 3.25077 0.75908 -0.220674 -0.0973772 1.32718
109 1 11.8472 3.14498 16.7426 11.8472 3.14498 -0.0150714 -0.360294 0.564345 -0.74691
112 1 11.8064 4.09447 0.87812 11.8064 4.09447 0.87812 -0.559032 1.46484 0.0713065
110 1 12.5224 4.26309 0.183523 12.5224 4.26309 0.183523 0.591905 0.203978 -0.28198
111 1 12.6057 3.2261 0.865815 12.6057 3.2261 0.865815 1.89254 -1.23422 -0.205756
113 1 13.2905 3.44614 16.7441 13.2905 3.44614 -0.0135901 -0.36614 -0.591343 0.269441
116 1 13.3782 4.17842 0.866448 13.3782 4.17842 0.866448 -0.83612 -0.48112 -0.13972
114 1 14.1933 4.222 0.0376645 14.1933 4.222 0.0376645 -0.484183 0.344559 -0.457733
115 1 14.2421 3.49314 0.820331 14.2421 3.49314 0.820331 -0.633202 -1.07789 0.256882
117 1 15.0292 3.37726 16.7399 15.0292 3.37726 -0.0177943 -0.401313 0.212524 0.322592
120 1 15.083 4.21953 0.620681 15.083 4.21953 0.620681 -0.361406 0.71016 1.38055
118 1 15.8736 4.03948 16.6868 15.8736 4.03948 -0.0709141 0.751611 -0.424073 0.161944
119 1 15.6211 3.38125 0.869087 15.6211 3.38125 0.869087 -0.246393 -0.362448 -1.88275
121 1 0.0749173 5.04443 0.041381 0.0749173 5.04443 0.041381 -0.149754 0.587499 -1.522
122 1 0.928305 5.97273 16.7568 0.928305 5.97273 -0.000883129 0.375911 0.444222 0.36419
123 1 0.826312 5.04113 0.707957 0.826312 5.04113 0.707957 -2.51649 -0.229714 1.0808
124 1 0.107748 5.94645 0.7502 0.107748 5.94645 0.7502 -0.562967 -1.60977 -0.328117
125 1 1.70638 5.22335 16.6071 1.70638 5.22335 -0.150568 -0.310326 0.221515 -0.226465
126 1 2.69765 5.94925 16.6914 2.69765 5.94925 -0.0662358 -0.20934 0.44911 0.336354
127 1 2.62516 5.15093 0.623055 2.62516 5.15093 0.623055 0.482202 -0.757146 0.387138
128 1 1.68925 5.93294 0.693002 1.68925 5.93294 0.693002 -0.220168 0.731533 -1.02997
129 1 3.4894 5.05551 16.6175 3.4894 5.05551 -0.140181 -0.159213 0.158164 -0.247568
130 1 4.24933 5.93806 16.7392 4.24933 5.93806 -0.0184907 0.62663 -0.0918431 -0.797044
131 1 4.23922 5.07221 0.855943 4.23922 5.07221 0.855943 -0.852785 -1.03847 0.900203
132 1 3.38892 5.88508 0.667041 3.38892 5.88508 0.667041 -0.124105 1.17625 0.404137
133 1 4.93995 5.01619 16.7169 4.93995 5.01619 -0.0408042 0.361521 -1.23235 -0.586966
134 1 5.64704 5.88773 16.7411 5.64704 5.88773 -0.0166035 -0.0868476 1.08761 0.670216
135 1 5.83248 5.00447 0.673904 5.83248 5.00447 0.673904 -0.805026 -0.326763 0.599732
136 1 5.049 5.94302 0.898129 5.049 5.94302 0.898129 0.997739 0.283985 0.231958
137 1 6.68656 4.99818 0.0255809 6.68656 4.99818 0.0255809 0.482861 0.613929 -0.485926
138 1 7.42858 5.79499 0.0281939 7.42858 5.79499 0.0281939 1.27528 0.116859 0.228995
139 1 7.45925 5.01583 0.747339 7.45925 5.01583 0.747339 0.874339 0.508926 0.914495
140 1 6.56052 5.77614 0.679356 6.56052 5.77614 0.679356 0.542617 1.38425 0.271461
141 1 8.28853 4.9236 0.0634647 8.28853 4.9236 0.0634647 -0.58657 1.01808 0.423366
144 1 8.42754 5.92329 0.652223 8.42754 5.92329 0.652223 -0.381336 0.644964 0.792067
142 1 9.23945 5.98894 16.5511 9.23945 5.98894 -0.206538 1.5451 -0.645745 1.14624
143 1 9.21227 4.88662 0.695144 9.21227 4.88662 0.695144 -0.924122 0.274809 -0.207115
145 1 9.83715 5.00863 16.6549 9.83715 5.00863 -0.102806 0.754269 0.221842 0.775157
148 1 10.2055 5.74362 0.816391 10.2055 5.74362 0.816391 -1.28146 0.70638 1.08281
146 1 10.9519 5.84671 16.7272 10.9519 5.84671 -0.0304465 -1.59751 0.384477 0.474477
147 1 10.8987 4.8926 0.856115 10.8987 4.8926 0.856115 1.26488 0.703992 -0.110271
149 1 11.7593 4.97748 0.0586427 11.7593 4.97748 0.0586427 -0.202225 0.242962 0.7542
152 1 11.6674 6.00849 0.785073 11.6674 6.00849 0.785073 -0.283297 -0.436881 0.260108
150 1 12.5608 6.03974 0.126916 12.5608 6.03974 0.126916 0.507688 0.467056 0.0758796
151 1 12.8192 5.10762 0.760684 12.8192 5.10762 0.760684 -0.314984 0.385548 0.353494
153 1 13.389 5.0139 16.6663 13.389 5.0139 -0.0913452 1.59554 1.30155 2.09602
156 1 13.5799 5.89829 0.570221 13.5799 5.89829 0.570221 -0.42462 0.204535 -0.203639
154 1 14.2774 5.99678 16.6258 14.2774 5.99678 -0.131902 0.74689 -0.585942 -0.522091
155 1 14.3803 4.98234 0.882076 14.3803 4.98234 0.882076 -0.944582 0.383448 -0.679488
157 1 15.1159 5.0471 16.7151 15.1159 5.0471 -0.0425879 -0.672901 -0.168623 0.462111
160 1 14.8677 6.02411 0.799574 14.8677 6.02411 0.799574 0.0014708 0.720824 0.992852
158 1 16.0538 6.07532 16.6913 16.0538 6.07532 -0.0663238 -0.134862 0.536794 -0.981251
159 1 15.7557 5.03885 0.766371 15.7557 5.03885 0.766371 0.515618 -0.909423 -1.11598
161 1 0.150095 6.929 16.5703 0.150095 6.929 -0.187393 0.982996 -0.970331 -0.385544
162 1 1.08982 7.45303 0.259583 1.08982 7.45303 0.259583 0.484999 -0.771642 -0.207582
163 1 0.919758 6.69485 0.991627 0.919758 6.69485 0.991627 0.981078 -0.744865 0.0834244
164 1 0.0179792 7.36001 0.854301 0.0179792 7.36001 0.854301 -0.2589 -0.193001 0.088857
165 1 1.76766 6.53265 16.5456 1.76766 6.53265 -0.212103 0.224137 -0.154633 0.186448
166 1 2.36044 7.58335 16.5829 2.36044 7.58335 -0.174794 0.143197 -0.492299 -0.446707
167 1 2.58965 6.75593 0.565622 2.58965 6.75593 0.565622 -0.487281 -0.122408 1.03586
168 1 2.02798 7.61007 0.778313 2.02798 7.61007 0.778313 -0.428888 0.0297027 1.1667
169 1 3.3675 6.76762 16.5872 3.3675 6.76762 -0.170501 -0.0420523 -0.135068 1.03805
170 1 4.23019 7.51053 16.4875 4.23019 7.51053 -0.270127 -0.366725 -0.145205 -1.50909
171 1 4.20578 6.64145 0.706783 4.20578 6.64145 0.706783 -0.0688223 0.386011 0.0129371
172 1 3.33028 7.64945 0.637351 3.33028 7.64945 0.637351 -0.462009 -0.778348 0.125924
173 1 5.11774 6.84743 16.5323 5.11774 6.84743 -0.225342 0.185846 0.818431 0.592369
174 1 6.1242 7.49637 0.180542 6.1242 7.49637 0.180542 0.267825 0.41807 -0.686497
175 1 5.87154 6.61188 0.796495 5.87154 6.61188 0.796495 -0.0875366 -0.60609 0.137108
176 1 5.03476 7.5101 0.727672 5.03476 7.5101 0.727672 0.522073 -0.0123134 0.522161
177 1 6.65848 6.65713 0.0166134 6.65848 6.65713 0.0166134 -1.61911 -0.807902 1.04296
178 1 7.59997 7.43451 0.120804 7.59997 7.43451 0.120804 0.440285 -0.548192 -0.465224
179 1 7.4558 6.62975 0.817917 7.4558 6.62975 0.817917 -0.133213 2.71106 -0.12986
180 1 6.88545 7.56382 1.00138 6.88545 7.56382 1.00138 -0.497809 0.1803 -0.692327
181 1 8.56747 6.77222 16.5719 8.56747 6.77222 -0.185792 0.299973 -0.286388 -0.783388
184 1 8.4397 7.32111 0.775107 8.4397 7.32111 0.775107 -0.808573 0.0999301 -0.334856
182 1 9.36093 7.38909 16.6153 9.36093 7.38909 -0.142349 0.287761 -0.326768 -0.888005
183 1 9.34437 6.49374 0.749278 9.34437 6.49374 0.749278 -0.368912 0.808777 0.121028
185 1 10.0976 6.65408 16.7104 10.0976 6.65408 -0.0472367 0.499874 0.46817 -0.510589
188 1 9.9845 7.4327 0.716199 9.9845 7.4327 0.716199 -0.635263 1.05321 -0.416638
186 1 10.7259 7.48033 16.7099 10.7259 7.48033 -0.0477814 0.294573 -1.51417 0.551764
187 1 10.8546 6.73356 0.759548 10.8546 6.73356 0.759548 -0.929395 -1.77344 -0.435867
189 1 11.632 6.79162 16.7237 11.632 6.79162 -0.0339239 0.674677 0.855899 -0.962889
192 1 11.6525 7.60075 0.717286 11.6525 7.60075 0.717286 0.179659 0.525238 1.77633
190 1 12.5679 7.45234 16.5438 12.5679 7.45234 -0.213881 -0.251355 0.502574 -1.54522
191 1 12.4405 6.84388 0.817156 12.4405 6.84388 0.817156 0.259019 1.24409 0.838293
193 1 13.2991 6.78116 16.7475 13.2991 6.78116 -0.0101901 -0.761112 0.215404 -0.714662
196 1 13.209 7.45078 0.831868 13.209 7.45078 0.831868 -0.998888 -0.0508072 0.803745
194 1 14.1545 7.50995 16.6837 14.1545 7.50995 -0.0739942 0.909151 0.857144 0.149433
195 1 14.1891 6.7958 0.725692 14.1891 6.7958 0.725692 0.763574 -0.151349 -0.861051
197 1 15.0913 6.71817 16.7275 15.0913 6.71817 -0.0301318 0.838662 -0.311584 0.259002
200 1 14.9488 7.56631 0.823801 14.9488 7.56631 0.823801 -0.00757345 -0.402838 -1.28725
198 1 15.8604 7.56669 0.0271462 15.8604 7.56669 0.0271462 -0.797694 -0.802018 -0.484074
199 1 15.8483 6.86014 0.910336 15.8483 6.86014 0.910336 0.124589 0.356899 0.184174
201 1 16.698 8.5333 0.0671004 -0.0596658 8.5333 0.0671004 -0.577069 -0.796468 0.352092
203 1 0.926087 8.36483 0.80143 0.926087 8.36483 0.80143 0.763979 1.65592 -1.05669
205 1 1.7662 8.30682 16.7089 1.7662 8.30682 -0.0487796 0.600826 -0.651373 0.628162
207 1 2.50779 8.54174 0.70464 2.50779 8.54174 0.70464 -1.02341 0.574619 -0.235416
209 1 3.22645 8.58313 16.6769 3.22645 8.58313 -0.0807799 -1.11165 0.201243 1.17382
211 1 4.13533 8.41547 0.701109 4.13533 8.41547 0.701109 0.720924 0.242531 1.83123
213 1 5.05951 8.36856 0.0882989 5.05951 8.36856 0.0882989 -0.569968 1.18832 0.606686
215 1 6.01287 8.35436 0.675218 6.01287 8.35436 0.675218 0.385234 0.739085 -1.01312
217 1 6.93014 8.30066 16.6311 6.93014 8.30066 -0.126572 0.198221 -0.398926 0.852755
219 1 7.83561 8.33977 0.871486 7.83561 8.33977 0.871486 0.109899 -0.882047 -0.561951
221 1 8.46765 8.014 16.7099 8.46765 8.014 -0.0478201 -0.107083 -0.484387 1.46451
223 1 9.01738 8.25571 0.942406 9.01738 8.25571 0.942406 0.0106305 -0.77781 0.124417
225 1 9.77561 8.3975 0.228091 9.77561 8.3975 0.228091 -0.78669 0.0538783 -1.08414
227 1 10.8215 8.22752 0.669893 10.8215 8.22752 0.669893 0.0406544 -2.18249 -0.269402
229 1 11.6014 8.31173 16.4518 11.6014 8.31173 -0.305823 -0.404163 -0.230926 1.053
231 1 12.4571 8.35541 0.76565 12.4571 8.35541 0.76565 0.120326 0.755891 -0.908262
233 1 13.4198 8.28047 16.7341 13.4198 8.28047 -0.0235926 -0.100797 -0.554082 -0.356021
235 1 14.136 8.48533 0.749569 14.136 8.48533 0.749569 0.28259 0.00677194 0.577498
237 1 15.0751 8.29122 0.000161491 15.0751 8.29122 0.000161491 1.65845 0.0710567 0.969682
239 1 15.8548 8.35288 0.744142 15.8548 8.35288 0.744142 0.688397 -0.833995 -0.782004
202 1 0.870351 9.21691 0.0494354 0.870351 9.21691 0.0494354 0.0709474 -0.455851 -0.00551159
204 1 16.7301 9.30004 0.911136 -0.0275584 9.30004 0.911136 -0.569912 0.374492 0.77561
241 1 16.7321 9.8851 0.0634413 -0.025551 9.8851 0.0634413 0.262554 0.0567398 -0.458765
243 1 0.798275 10.0278 0.843133 0.798275 10.0278 0.843133 -1.02403 0.558192 0.480041
206 1 2.2689 9.25002 16.6368 2.2689 9.25002 -0.12086 -0.871459 0.350608 1.01802
208 1 1.52215 9.24301 0.815568 1.52215 9.24301 0.815568 0.081919 -0.0130151 0.129402
245 1 1.82088 10.1331 0.0959667 1.82088 10.1331 0.0959667 -1.00647 0.302995 1.10763
247 1 2.41936 9.98167 1.1947 2.41936 9.98167 1.1947 -0.245388 -1.02902 -0.28989
210 1 4.32859 9.26543 16.7013 4.32859 9.26543 -0.0563432 1.05674 -0.182256 0.202074
212 1 3.31316 9.24449 0.883095 3.31316 9.24449 0.883095 0.551353 0.177204 -0.0769926
249 1 3.30207 9.93878 0.109935 3.30207 9.93878 0.109935 0.527457 -0.959285 -0.354134
251 1 4.25435 10.024 0.738054 4.25435 10.024 0.738054 0.539346 -0.449162 -0.823224
214 1 5.91937 9.05465 16.6507 5.91937 9.05465 -0.106992 0.742092 -0.351748 -0.592171
216 1 5.12516 9.1983 0.791377 5.12516 9.1983 0.791377 1.23508 -0.515549 1.09721
253 1 5.07835 10.0574 16.7544 5.07835 10.0574 -0.00325311 -1.43434 0.217861 -0.867299
255 1 5.77545 10.1255 1.18281 5.77545 10.1255 1.18281 1.398 -0.358371 -1.1862
218 1 7.76201 9.14214 0.0982343 7.76201 9.14214 0.0982343 -0.422109 0.325687 0.645549
220 1 6.73559 9.07731 0.67692 6.73559 9.07731 0.67692 1.0015 -0.4609 0.14978
257 1 6.8162 10.0463 0.00320255 6.8162 10.0463 0.00320255 0.841858 -0.159304 1.26025
259 1 7.7166 10.1008 0.642916 7.7166 10.1008 0.642916 -0.234744 -0.149014 0.893897
224 1 8.60351 9.35085 0.790777 8.60351 9.35085 0.790777 -0.151985 -0.00283445 0.168372
261 1 8.64725 10.2548 16.6598 8.64725 10.2548 -0.0978769 1.237 -1.21022 -0.047289
222 1 9.51274 9.50251 16.6371 9.51274 9.50251 -0.120611 -0.0209186 0.0784531 0.0782754
228 1 10.117 9.28998 0.770468 10.117 9.28998 0.770468 0.207345 -1.31043 0.0572319
263 1 9.42484 10.2811 0.614041 9.42484 10.2811 0.614041 -0.642676 -0.503245 -0.908515
265 1 10.2333 10.388 16.6948 10.2333 10.388 -0.0629033 0.57609 0.389825 0.527036
226 1 10.76 9.25475 16.6968 10.76 9.25475 -0.0608326 0.91645 0.683929 -0.217554
232 1 11.6064 9.14637 0.613145 11.6064 9.14637 0.613145 -0.651068 1.08634 0.447551
267 1 10.9574 10.2113 0.63554 10.9574 10.2113 0.63554 -0.726657 -0.0728465 -0.379787
269 1 11.5489 10.0625 16.3796 11.5489 10.0625 -0.37805 0.75606 -0.287774 -0.0798337
230 1 12.5618 9.01708 16.6933 12.5618 9.01708 -0.064356 -2.30342 0.00464443 0.0873261
236 1 13.5471 9.45509 0.849981 13.5471 9.45509 0.849981 0.144777 -0.712589 -0.500404
271 1 12.5134 10.0306 0.565168 12.5134 10.0306 0.565168 0.437738 0.483051 0.492214
273 1 13.4864 10.1735 0.109206 13.4864 10.1735 0.109206 -0.318445 -0.910648 0.406566
234 1 14.2779 9.27154 16.7393 14.2779 9.27154 -0.0184131 -0.12582 0.323233 0.278878
240 1 15.1448 9.15678 0.728885 15.1448 9.15678 0.728885 -0.209767 0.78244 1.27991
275 1 14.3274 10.2232 0.66615 14.3274 10.2232 0.66615 -0.65098 0.676077 0.537673
277 1 15.1784 10.001 0.092276 15.1784 10.001 0.092276 0.0888711 0.636082 0.928574
238 1 15.855 9.22618 0.0187386 15.855 9.22618 0.0187386 -0.667653 -2.28614 -0.217967
279 1 15.9592 10.0641 0.787397 15.9592 10.0641 0.787397 1.52714 -0.93169 0.467883
242 1 0.729864 10.8052 0.00745905 0.729864 10.8052 0.00745905 0.739151 -0.44704 -0.56056
244 1 16.5687 10.8728 0.780601 -0.188924 10.8728 0.780601 0.637819 0.271233 0.0221118
281 1 16.5972 11.6136 16.5748 -0.160484 11.6136 -0.182916 -0.421807 0.691739 0.534375
283 1 0.500783 11.5788 0.795338 0.500783 11.5788 0.795338 0.55084 -0.138266 -1.16593
246 1 2.52992 10.9363 0.0961885 2.52992 10.9363 0.0961885 1.4876 1.04055 0.0631462
248 1 1.39393 10.8771 0.913886 1.39393 10.8771 0.913886 0.549182 -0.764188 0.697755
285 1 1.62851 11.4643 0.0548828 1.62851 11.4643 0.0548828 -0.0515575 -0.160711 -0.530485
287 1 2.30883 11.7029 0.856552 2.30883 11.7029 0.856552 -0.0371324 -0.684991 -0.0576775
250 1 4.28357 10.8939 0.0163699 4.28357 10.8939 0.0163699 -0.581366 -0.634354 0.321509
252 1 3.45084 10.974 0.948788 3.45084 10.974 0.948788 -0.109137 0.397573 -1.06581
289 1 3.39146 11.6271 0.0175683 3.39146 11.6271 0.0175683 -0.496506 1.14189 -0.231207
291 1 4.22325 11.8572 0.900839 4.22325 11.8572 0.900839 0.23093 -0.311084 1.70391
254 1 5.87782 10.8793 16.6607 5.87782 10.8793 -0.0970077 -1.34866 0.177621 0.285803
256 1 4.9114 10.8669 1.0418 4.9114 10.8669 1.0418 0.830289 0.799161 0.755316
293 1 5.08897 11.7602 0.0736451 5.08897 11.7602 0.0736451 1.69489 0.889962 -0.314458
295 1 5.77253 11.7553 0.990952 5.77253 11.7553 0.990952 0.78359 -0.764365 -0.689479
258 1 7.41481 10.9134 16.731 7.41481 10.9134 -0.0266747 0.675026 -0.386054 0.558974
260 1 6.80456 10.6621 1.07053 6.80456 10.6621 1.07053 1.1479 0.391424 -0.0363804
297 1 6.58929 11.5227 0.222357 6.58929 11.5227 0.222357 -0.0958278 -0.867267 -0.604464
299 1 7.53533 11.5346 0.82976 7.53533 11.5346 0.82976 1.08451 -0.0641501 -0.52535
264 1 8.47358 10.7821 0.774062 8.47358 10.7821 0.774062 -1.02598 0.393208 -0.421886
301 1 8.50393 11.6733 0.233179 8.50393 11.6733 0.233179 -0.174209 -0.0575777 1.16364
262 1 9.46423 11.0826 0.0086279 9.46423 11.0826 0.0086279 1.10927 -1.28253 -0.169147
268 1 10.1861 10.9905 0.920428 10.1861 10.9905 0.920428 0.721334 0.0366389 -0.928837
303 1 9.43383 11.8736 0.834611 9.43383 11.8736 0.834611 -0.429748 0.70487 0.385097
305 1 10.3027 11.7396 16.5799 10.3027 11.7396 -0.177777 0.596794 -0.492239 0.25199
266 1 11.1818 11.1031 16.6815 11.1818 11.1031 -0.0761323 0.384329 0.568706 -0.460937
272 1 11.9154 10.7682 0.944951 11.9154 10.7682 0.944951 -0.246654 -0.248982 -0.320263
307 1 11.0665 11.9179 0.847342 11.0665 11.9179 0.847342 1.11498 -0.695447 1.15548
309 1 11.7748 11.9183 16.5862 11.7748 11.9183 -0.171442 0.0354014 0.31677 -0.390646
270 1 12.583 11.0867 0.116264 12.583 11.0867 0.116264 1.18489 1.3103 -0.723579
276 1 13.3457 11.0142 0.891237 13.3457 11.0142 0.891237 1.44178 -0.98773 1.59564
311 1 12.5486 11.8898 0.785744 12.5486 11.8898 0.785744 -0.0385486 -0.764417 0.21342
313 1 13.4853 11.7469 0.0279892 13.4853 11.7469 0.0279892 0.137532 0.23627 1.27383
274 1 14.2588 10.8265 16.5301 14.2588 10.8265 -0.227575 -0.92375 0.447264 1.05915
280 1 15.0612 11.0361 0.804393 15.0612 11.0361 0.804393 0.377336 0.475173 0.421845
315 1 14.1304 11.8998 0.931362 14.1304 11.8998 0.931362 -1.20327 1.13994 -0.079269
317 1 14.9274 11.7898 16.7239 14.9274 11.7898 -0.0337982 0.749607 -1.22872 0.556105
278 1 15.7302 11.0105 0.0111501 15.7302 11.0105 0.0111501 -0.329812 -0.270245 0.698984
319 1 15.7266 11.8804 0.767104 15.7266 11.8804 0.767104 -0.488469 0.233768 -0.40717
282 1 0.668009 12.2449 16.7168 0.668009 12.2449 -0.0408696 -0.538646 1.59789 0.770892
284 1 0.00581814 12.5025 0.771521 0.00581814 12.5025 0.771521 0.694025 -0.679553 -0.426168
321 1 0.0227597 13.1117 16.6015 0.0227597 13.1117 -0.156173 0.586723 -1.01051 -0.638775
323 1 0.915559 13.3982 0.974043 0.915559 13.3982 0.974043 0.51394 1.33958 -0.0987193
286 1 2.41484 12.2313 16.628 2.41484 12.2313 -0.129711 -0.637945 -0.275173 0.679133
288 1 1.49051 12.4662 0.876579 1.49051 12.4662 0.876579 0.0994751 -0.259295 -0.499201
325 1 1.65208 13.1258 0.014225 1.65208 13.1258 0.014225 -0.447089 0.872226 -0.0830452
327 1 2.4524 13.2778 0.877304 2.4524 13.2778 0.877304 -0.123935 1.42619 -0.0714271
290 1 4.16831 12.2774 16.678 4.16831 12.2774 -0.079692 0.792478 0.222738 0.198771
292 1 3.10468 12.4358 0.879314 3.10468 12.4358 0.879314 -0.784941 -0.871905 -2.27041
329 1 3.31096 13.1586 0.157789 3.31096 13.1586 0.157789 -2.40901 0.402719 -0.18133
331 1 4.07259 13.2854 1.03792 4.07259 13.2854 1.03792 -0.499946 1.35137 0.720742
294 1 5.88253 12.4893 0.189873 5.88253 12.4893 0.189873 0.729708 -0.323278 -0.807415
296 1 4.92434 12.694 0.906696 4.92434 12.694 0.906696 0.707606 0.353377 -0.708494
333 1 5.11634 13.3985 0.104931 5.11634 13.3985 0.104931 0.321725 0.108986 0.349252
335 1 5.89783 13.3451 0.845111 5.89783 13.3451 0.845111 0.100045 -0.412458 1.04251
298 1 7.56853 12.5688 16.7345 7.56853 12.5688 -0.0232056 0.87111 0.29826 -0.702301
300 1 6.77436 12.4939 0.921604 6.77436 12.4939 0.921604 -0.158398 0.102314 0.344052
337 1 6.73596 13.1942 0.0284771 6.73596 13.1942 0.0284771 -0.0466606 1.56786 0.167046
339 1 7.39378 13.4194 0.833267 7.39378 13.4194 0.833267 0.320863 0.00121919 -1.8416
304 1 8.32521 12.5437 0.781374 8.32521 12.5437 0.781374 0.57858 0.950989 0.279696
341 1 8.36254 13.4633 0.142306 8.36254 13.4633 0.142306 1.16813 -1.55999 -0.729447
302 1 9.32433 12.5061 0.0522972 9.32433 12.5061 0.0522972 -4.07221e-05 -0.205976 0.282004
308 1 10.1799 12.6107 0.728295 10.1799 12.6107 0.728295 0.779076 -0.594413 -0.522275
343 1 9.16631 13.3582 0.767982 9.16631 13.3582 0.767982 1.55841 0.99555 0.484056
345 1 10.0345 13.4054 16.5377 10.0345 13.4054 -0.219976 1.00738 0.154623 0.0529032
306 1 10.9141 12.7523 16.6777 10.9141 12.7523 -0.079986 1.25287 0.949903 -0.443095
312 1 11.8066 12.7615 0.533575 11.8066 12.7615 0.533575 -0.392886 -1.53768 1.39847
347 1 11.0435 13.5578 0.648055 11.0435 13.5578 0.648055 -0.693699 0.683309 -0.148668
349 1 11.8369 13.4894 16.5481 11.8369 13.4894 -0.209616 0.340192 -0.787365 -0.0133911
310 1 12.5719 12.7159 16.5797 12.5719 12.7159 -0.17799 0.330656 0.271925 0.417807
316 1 13.4166 12.6321 0.665208 13.4166 12.6321 0.665208 0.209147 1.78929 1.36331
351 1 12.6629 13.5054 0.717354 12.6629 13.5054 0.717354 -0.975498 1.03464 0.147181
353 1 13.4093 13.4741 16.6515 13.4093 13.4741 -0.106203 0.279452 0.35784 0.798835
314 1 14.2132 12.5899 16.7108 14.2132 12.5899 -0.0468696 0.446529 -1.6209 1.7276
320 1 14.9647 12.7095 0.68987 14.9647 12.7095 0.68987 -0.868579 -1.00298 0.226872
355 1 14.3044 13.4563 0.831087 14.3044 13.4563 0.831087 0.113577 0.555404 -0.975169
357 1 15.1152 13.5487 16.5971 15.1152 13.5487 -0.160567 0.866613 -0.488533 1.37146
318 1 15.7871 12.4173 16.6235 15.7871 12.4173 -0.134199 -0.256992 -0.288051 -0.791426
359 1 15.9806 13.4028 0.677191 15.9806 13.4028 0.677191 1.77774 -0.104505 -0.466697
322 1 0.844013 14.0546 0.0398998 0.844013 14.0546 0.0398998 -0.378422 0.853978 -0.267168
324 1 16.7432 14.2659 1.01251 -0.0144522 14.2659 1.01251 0.107369 0.393806 -0.0677222
361 1 16.597 15.1972 0.265971 -0.160691 15.1972 0.265971 1.05304 0.778319 2.06213
363 1 0.707696 15.2302 0.773469 0.707696 15.2302 0.773469 -1.06779 1.22079 0.310836
326 1 2.38352 13.9976 0.0849882 2.38352 13.9976 0.0849882 0.0953806 -0.277677 -0.770447
328 1 1.68041 14.3226 0.889478 1.68041 14.3226 0.889478 0.789878 -0.699632 1.12409
365 1 1.60513 15.074 0.0924651 1.60513 15.074 0.0924651 0.449116 1.02797 -0.951613
367 1 2.57861 14.9019 0.743145 2.57861 14.9019 0.743145 -0.00507639 -0.445477 -0.823974
330 1 4.27565 14.2019 0.067037 4.27565 14.2019 0.067037 -0.161191 -0.00357671 0.420957
332 1 3.33359 14.0518 0.800033 3.33359 14.0518 0.800033 -0.494465 -0.109145 0.192776
369 1 3.20957 14.7515 16.6815 3.20957 14.7515 -0.0761505 -0.155036 0.10286 -0.639984
371 1 4.26698 14.9717 0.955053 4.26698 14.9717 0.955053 0.731857 -0.598403 0.34963
334 1 5.78728 14.2246 0.192146 5.78728 14.2246 0.192146 0.969391 -0.548888 0.17886
336 1 4.95977 14.1423 0.991076 4.95977 14.1423 0.991076 -1.05125 0.394149 0.343621