ITEM: TIMESTEP
100
ITEM: NUMBER OF ATOMS
4000
ITEM: BOX BOUNDS pp pp pp
0.0000000000000000e+00 1.6757672110741936e+01
0.0000000000000000e+00 1.6757672110741936e+01
0.0000000000000000e+00 1.6757672110741936e+01
ITEM: ATOMS id type x y z xu yu zu vx vy vz
1 1 16.7024 0.157898 0.0992374 -0.0553035 0.157898 0.0992374 -1.90739 -0.00736741 0.342818
2 1 0.912057 0.878886 16.6479 0.912057 0.878886 -0.1098 1.58468 -0.704747 -0.310735
3 1 0.807326 0.0786861 0.805117 0.807326 0.0786861 0.805117 -0.0983474 -0.55265 0.585892
4 1 0.151538 0.943427 0.79361 0.151538 0.943427 0.79361 0.721176 -1.42542 1.46192
5 1 1.66727 16.6491 16.5418 1.66727 -0.108574 -0.215825 -0.542617 1.06677 0.561787
6 1 2.48292 0.891035 16.6388 2.48292 0.891035 -0.118903 -0.309944 -0.272659 0.0123154
7 1 2.40912 16.7494 0.518833 2.40912 -0.00827461 0.518833 -1.313 0.34884 -1.12359
8 1 1.63844 0.816377 0.806737 1.63844 0.816377 0.806737 1.03008 1.04857 -0.510508
9 1 3.27222 16.7038 16.6094 3.27222 -0.0538981 -0.148284 1.11996 -1.71434 0.215355
10 1 4.06798 0.804604 0.0279507 4.06798 0.804604 0.0279507 -0.556453 0.949488 0.415315
11 1 4.34709 8.88147e-05 0.652305 4.34709 8.88147e-05 0.652305 -0.0343434 -0.398471 0.136493
12 1 3.364 0.552121 0.828186 3.364 0.552121 0.828186 -0.575019 -0.13901 -0.224013
13 1 5.03515 0.139404 16.5289 5.03515 0.139404 -0.228774 0.233495 -0.217402 -0.535485
14 1 5.87585 1.01413 16.6921 5.87585 1.01413 -0.0656099 1.02546 0.24505 1.26616
15 1 5.76721 0.323558 0.728577 5.76721 0.323558 0.728577 -1.22327 0.836538 -0.205826
16 1 5.00778 0.909057 0.990802 5.00778 0.909057 0.990802 -0.305469 -0.486526 0.217952
17 1 6.67778 0.122345 0.0486203 6.67778 0.122345 0.0486203 0.00514466 1.11028 0.216915
18 1 7.65117 0.680546 0.00468694 7.65117 0.680546 0.00468694 -0.0864923 1.1586 -1.61689
19 1 7.37913 16.6381 0.903042 7.37913 -0.119591 0.903042 -0.492115 1.26513 0.123039
20 1 6.60134 1.09289 0.786133 6.60134 1.09289 0.786133 -0.310647 -0.983334 -0.0866637
21 1 8.51003 16.708 0.154775 8.51003 -0.0497046 0.154775 1.13622 0.263167 -1.23108
24 1 8.58938 0.950151 0.61024 8.58938 0.950151 0.61024 -0.0702083 0.0853322 -0.442474
22 1 9.35753 0.895007 16.6677 9.35753 0.895007 -0.09002 -1.12839 -0.964587 0.184549
23 1 9.38959 16.5196 0.756769 9.38959 -0.238048 0.756769 0.629428 -2.31893 0.428866
25 1 10.0565 16.705 16.5214 10.0565 -0.0527089 -0.236279 0.771549 -0.656856 1.70256
28 1 10.1244 0.757308 0.664714 10.1244 0.757308 0.664714 0.128766 0.501729 0.0860417
26 1 11.0327 0.688126 0.019722 11.0327 0.688126 0.019722 -1.2354 -0.518729 -0.820069
27 1 10.9179 16.5439 1.02572 10.9179 -0.213804 1.02572 -0.699817 -0.937748 1.12937
29 1 11.8174 16.7063 0.0583231 11.8174 -0.0514195 0.0583231 -1.33496 0.793959 0.243939
32 1 12.0113 0.892425 0.805977 12.0113 0.892425 0.805977 0.28611 -0.896482 1.29993
30 1 12.6958 0.650545 0.0968279 12.6958 0.650545 0.0968279 0.300994 -1.17438 -0.386205
31 1 12.573 16.615 0.946483 12.573 -0.142682 0.946483 0.291469 0.115297 -0.121879
33 1 13.4929 16.565 16.63 13.4929 -0.192648 -0.127674 1.68615 0.641681 -1.23626
36 1 13.4033 0.642501 0.937316 13.4033 0.642501 0.937316 -0.677677 0.225934 0.747716
34 1 14.1631 0.643702 0.134242 14.1631 0.643702 0.134242 -0.85779 -0.24057 1.04097
35 1 14.423 16.6728 0.991597 14.423 -0.0848359 0.991597 0.0828194 0.280728 0.0812546
37 1 15.1828 0.148759 0.0443854 15.1828 0.148759 0.0443854 -0.0806191 -0.206351 -0.515435
40 1 15.0567 0.926575 0.916616 15.0567 0.926575 0.916616 0.0747723 -0.0753722 -0.834672
38 1 15.8302 0.945095 0.10373 15.8302 0.945095 0.10373 -0.817833 -0.398534 -0.666547
39 1 15.9647 0.180933 0.940728 15.9647 0.180933 0.940728 1.00672 0.114583 1.32774
41 1 0.000555455 1.6888 0.0878248 0.000555455 1.6888 0.0878248 0.656571 0.0448643 -0.751753
42 1 0.533354 2.58376 16.6336 0.533354 2.58376 -0.124069 -0.211123 -0.292435 -0.238034
43 1 0.82774 1.72514 0.839092 0.82774 1.72514 0.839092 0.149987 1.10621 -0.711481
44 1 16.6577 2.68279 0.792652 -0.0999838 2.68279 0.792652 -0.606063 0.408505 0.1082
45 1 1.80192 1.64578 16.7231 1.80192 1.64578 -0.0345766 -0.712156 -1.40891 -0.433628
46 1 2.45979 2.47024 16.629 2.45979 2.47024 -0.128667 0.742898 0.02033 0.279461
47 1 2.90985 1.58285 0.722995 2.90985 1.58285 0.722995 0.505168 0.665423 0.00270729
48 1 1.95529 2.29353 0.752492 1.95529 2.29353 0.752492 1.91882 -0.796378 -0.385757
49 1 3.25461 1.62502 16.4629 3.25461 1.62502 -0.29476 0.696045 1.43012 0.0105379
50 1 4.21646 2.48122 16.6373 4.21646 2.48122 -0.120346 0.0473183 0.856007 -0.559051
51 1 4.28604 1.71404 0.841769 4.28604 1.71404 0.841769 -0.240046 -0.534649 0.373935
52 1 3.31342 2.59323 0.574445 3.31342 2.59323 0.574445 -0.0823417 1.47228 -0.44973
53 1 5.01142 1.67333 16.725 5.01142 1.67333 -0.0326495 0.986802 -0.29607 -0.0390169
54 1 5.84857 2.54929 0.0264689 5.84857 2.54929 0.0264689 -0.057817 0.841605 -0.0213585
55 1 5.72357 1.71295 0.712728 5.72357 1.71295 0.712728 -0.0417731 -0.685344 -0.076678
56 1 4.96601 2.52703 0.788466 4.96601 2.52703 0.788466 0.269626 -0.00408652 -0.615051
57 1 6.74068 1.75793 16.7077 6.74068 1.75793 -0.049942 -0.393254 0.674024 0.0935124
58 1 7.55767 2.56143 0.00177867 7.55767 2.56143 0.00177867 -0.580592 -0.253179 0.426337
59 1 7.53674 1.67864 0.710438 7.53674 1.67864 0.710438 0.219726 -1.16914 -0.460183
60 1 6.72035 2.33048 0.874787 6.72035 2.33048 0.874787 -0.57378 0.718744 -0.313342
61 1 8.36304 1.71864 16.5979 8.36304 1.71864 -0.159804 -1.15994 -0.241422 -0.855866
64 1 8.29615 2.55871 0.833442 8.29615 2.55871 0.833442 1.10958 -0.0488959 0.678057
62 1 9.01491 2.69544 16.7092 9.01491 2.69544 -0.0484534 -0.542106 0.190109 -0.261933
63 1 9.07531 1.83399 0.841112 9.07531 1.83399 0.841112 0.922224 -0.616065 0.862436
65 1 9.93756 1.78038 0.118903 9.93756 1.78038 0.118903 -0.227598 -0.57031 -1.17497
68 1 10.015 2.54593 1.0642 10.015 2.54593 1.0642 -0.0241191 0.203285 0.128236
66 1 10.9971 2.31315 0.00657082 10.9971 2.31315 0.00657082 1.06602 0.541927 -1.01428
67 1 11.0861 1.66003 0.788461 11.0861 1.66003 0.788461 0.72249 0.650601 0.393877
69 1 11.9301 1.78083 0.0918525 11.9301 1.78083 0.0918525 -0.314448 -0.493133 0.708734
72 1 11.8486 2.50352 0.962723 11.8486 2.50352 0.962723 -1.56513 -0.452233 0.103152
70 1 12.7597 2.45468 0.0948408 12.7597 2.45468 0.0948408 -0.234168 0.636119 -0.61554
71 1 12.5723 1.67093 0.969555 12.5723 1.67093 0.969555 0.0576874 -0.4958 -1.29017
73 1 13.3382 1.54504 0.117107 13.3382 1.54504 0.117107 0.598616 -0.481329 0.545757
76 1 13.4941 2.55915 0.836477 13.4941 2.55915 0.836477 0.184068 -0.0278916 -1.19782
74 1 14.0392 2.58412 16.684 14.0392 2.58412 -0.0737115 1.2971 -1.3955 0.619676
75 1 14.1956 1.61499 0.921228 14.1956 1.61499 0.921228 0.477315 1.30663 -0.51502
77 1 14.8235 1.63752 0.0953692 14.8235 1.63752 0.0953692 0.273738 0.356911 1.03128
80 1 14.8678 2.59678 0.805798 14.8678 2.59678 0.805798 -0.832805 0.687124 -0.125971
78 1 15.8121 2.54678 0.0786078 15.8121 2.54678 0.0786078 0.469635 0.784158 -0.727724
79 1 15.847 1.75693 0.761785 15.847 1.75693 0.761785 0.754679 0.425948 0.788873
81 1 16.5624 3.3521 16.6098 -0.195289 3.3521 -0.147836 -1.2057 -0.615355 -0.72819
82 1 0.806594 4.2042 16.7545 0.806594 4.2042 -0.00320869 -0.538046 -1.18964 0.570863
83 1 0.760131 3.21656 0.853941 0.760131 3.21656 0.853941 0.312352 0.432163 -0.292391
84 1 16.6587 3.9745 0.785165 -0.0989567 3.9745 0.785165 -0.0253206 1.06667 -0.806095
85 1 1.44068 3.17756 0.0362043 1.44068 3.17756 0.0362043 -0.924971 -0.705728 -0.413044
86 1 2.14483 4.27681 0.00298964 2.14483 4.27681 0.00298964 0.785744 -0.176901 0.537922
87 1 2.38401 3.34144 0.623954 2.38401 3.34144 0.623954 -0.250501 -0.107228 0.575415
88 1 1.47673 3.91123 0.778249 1.47673 3.91123 0.778249 0.602175 0.309755 0.746538
89 1 3.38049 3.45636 16.6323 3.38049 3.45636 -0.125375 0.83397 -0.411217 -0.457133
90 1 4.18467 4.20531 16.6677 4.18467 4.20531 -0.0899473 0.913593 0.211948 0.690631
91 1 4.12654 3.30293 0.778867 4.12654 3.30293 0.778867 0.37287 0.407971 0.440489
92 1 3.37559 4.20844 0.773864 3.37559 4.20844 0.773864 -1.59175 0.30062 -0.164976
93 1 4.88537 3.29709 16.6854 4.88537 3.29709 -0.0722561 0.898072 -0.433478 -0.454024
94 1 5.65203 4.00545 0.0619001 5.65203 4.00545 0.0619001 1.22635 0.450043 -0.844871
95 1 5.83359 3.27988 0.80601 5.83359 3.27988 0.80601 0.214889 0.897944 -0.961737
96 1 4.85002 4.17406 0.671332 4.85002 4.17406 0.671332 0.795833 -0.148476 -0.21062
97 1 6.70198 3.26216 16.6858 6.70198 3.26216 -0.0718275 -0.635503 -0.24008 -0.798595
98 1 7.44706 4.14269 16.6555 7.44706 4.14269 -0.102208 0.866067 0.397996 -0.0737747
99 1 7.38876 3.29153 0.882019 7.38876 3.29153 0.882019 -0.451237 0.207521 -1.07059
100 1 6.61587 4.26788 0.696872 6.61587 4.26788 0.696872 -0.157065 0.0741668 0.0549756
101 1 8.21782 3.37397 0.0745284 8.21782 3.37397 0.0745284 -0.248405 -0.934211 -1.49911
104 1 8.42838 4.11741 0.811475 8.42838 4.11741 0.811475 0.289015 -0.694944 -1.70925
102 1 9.11656 4.15021 16.6243 9.11656 4.15021 -0.133345 0.124604 0.31552 -0.153292
103 1 9.16313 3.26728 0.840467 9.16313 3.26728 0.840467 0.150143 0.149171 1.19871
105 1 9.99947 3.23508 0.0708817 9.99947 3.23508 0.0708817 1.83757 0.00878818 0.796451
108 1 9.98724 4.03296 0.892405 9.98724 4.03296 0.892405 0.206788 0.169832 0.264008
106 1 10.7894 4.09609 16.684 10.7894 4.09609 -0.0736671 0.300796 0.193752 1.20485
107 1 10.9319 3.17115 0.837423 10.9319 3.17115 0.837423 0.161718 0.860855 -0.100128
109 1 11.7408 3.19622 0.0260876 11.7408 3.19622 0.0260876 0.999287 -0.901408 0.00944349
112 1 11.5476 4.05917 0.752066 11.5476 4.05917 0.752066 0.301824 0.0186543 2.36075
110 1 12.5758 4.07848 0.199174 12.5758 4.07848 0.199174 0.744956 0.603202 0.0213613
111 1 12.6482 3.27202 0.87295 12.6482 3.27202 0.87295 -1.20766 0.620482 0.218651
113 1 13.5622 3.48839 16.7411 13.5622 3.48839 -0.0166205 -1.42083 0.733651 -0.419256
116 1 13.6037 4.3575 0.782064 13.6037 4.3575 0.782064 -0.054316 -0.157568 0.396902
114 1 14.3388 4.34464 16.7094 14.3388 4.34464 -0.0482387 -1.55911 -0.719351 -0.413391
115 1 14.3228 3.53772 0.83903 14.3228 3.53772 0.83903 0.701279 -0.28318 0.410716
117 1 14.9559 3.19765 16.5835 14.9559 3.19765 -0.174197 0.962325 0.0364187 0.727222
120 1 15.1655 4.25018 0.744221 15.1655 4.25018 0.744221 -0.00759795 -0.322653 -1.97739
118 1 15.8495 4.31709 16.7544 15.8495 4.31709 -0.00322447 -0.0120286 -0.844294 -0.605289
119 1 15.8824 3.3556 0.992579 15.8824 3.3556 0.992579 -0.211299 -0.073357 0.409562
121 1 0.0561374 5.15344 0.0556126 0.0561374 5.15344 0.0556126 -0.758508 -0.494206 0.810801
122 1 0.761967 5.90926 16.6281 0.761967 5.90926 -0.129544 -0.363502 -0.123157 0.176525
123 1 1.14835 4.87531 0.856039 1.14835 4.87531 0.856039 0.913298 0.941425 -0.6001
124 1 0.0677918 6.17841 0.758167 0.0677918 6.17841 0.758167 0.387135 -0.256813 -0.188983
125 1 1.71315 5.22691 16.532 1.71315 5.22691 -0.225681 1.13886 0.236907 1.37392
126 1 2.57458 5.93991 16.5255 2.57458 5.93991 -0.232202 -0.954523 -1.09195 0.842524
127 1 2.53039 5.17634 0.665997 2.53039 5.17634 0.665997 -0.369239 -0.715152 -0.331611
128 1 1.73147 5.94565 0.968534 1.73147 5.94565 0.968534 0.336233 -0.822357 -0.598593
129 1 3.37096 5.04471 16.6695 3.37096 5.04471 -0.0882024 0.53413 0.117891 -0.0440219
130 1 4.12488 5.91454 16.5787 4.12488 5.91454 -0.179014 0.410579 -0.165876 0.322085
131 1 4.07402 4.92258 0.690529 4.07402 4.92258 0.690529 0.72997 1.42834 -0.104424
132 1 3.39241 5.88097 0.834259 3.39241 5.88097 0.834259 0.326502 -1.10365 -0.486904
133 1 4.98873 5.06594 16.7344 4.98873 5.06594 -0.0232561 -0.132452 0.525775 -0.642889
134 1 5.95277 5.80588 16.689 5.95277 5.80588 -0.0687023 -1.20407 -0.204314 -0.0801309
135 1 5.65151 4.95298 0.754409 5.65151 4.95298 0.754409 -0.0926164 -1.10393 -0.542648
136 1 4.94375 5.93404 0.694489 4.94375 5.93404 0.694489 -0.266894 0.171693 0.754907
137 1 6.56098 4.85762 16.5185 6.56098 4.85762 -0.239207 1.41747 0.404943 0.881169
138 1 7.17954 5.69572 16.6178 7.17954 5.69572 -0.139858 0.349221 0.370195 -0.0259516
139 1 7.48061 5.02253 0.670138 7.48061 5.02253 0.670138 -0.633329 -1.00593 0.211579
140 1 6.64654 5.80156 0.779731 6.64654 5.80156 0.779731 -1.52909 0.409845 -0.906529
141 1 8.50948 4.91284 16.6685 8.50948 4.91284 -0.0892208 -0.00753564 -0.574068 0.966566
144 1 8.42139 5.76557 0.498092 8.42139 5.76557 0.498092 0.0580248 -0.454073 -0.789702
142 1 9.24428 5.77862 16.4825 9.24428 5.77862 -0.275146 -0.341149 1.51092 -0.394935
143 1 9.31998 4.82121 0.675186 9.31998 4.82121 0.675186 -0.32291 -0.35777 0.597003
145 1 10.1594 5.05855 16.6368 10.1594 5.05855 -0.120916 -1.06488 0.0593575 0.143137
148 1 10.21 5.83196 0.752521 10.21 5.83196 0.752521 1.62745 -0.65243 -2.01779
146 1 10.9444 5.73877 16.7439 10.9444 5.73877 -0.0137402 0.403602 -0.137588 0.180853
147 1 10.7471 4.83561 0.768438 10.7471 4.83561 0.768438 -0.323764 -0.638776 0.257585
149 1 11.787 4.96352 0.28553 11.787 4.96352 0.28553 1.04942 0.947152 -1.56322
152 1 11.6011 5.85027 0.975772 11.6011 5.85027 0.975772 0.355217 0.883808 -0.863582
150 1 12.4521 5.74487 16.7138 12.4521 5.74487 -0.0438767 0.613771 0.243807 0.0517059
151 1 12.5625 5.00374 0.876193 12.5625 5.00374 0.876193 1.50483 0.766281 -1.07287
153 1 13.3113 4.99181 16.7569 13.3113 4.99181 -0.000739892 -0.764934 -0.996144 -0.784698
156 1 13.4932 5.77705 0.850079 13.4932 5.77705 0.850079 -0.0897871 -0.415666 0.370893
154 1 14.2972 5.95732 16.6719 14.2972 5.95732 -0.0857991 -0.263397 0.591032 -0.185713
155 1 14.366 5.03953 0.871774 14.366 5.03953 0.871774 0.735169 -1.30142 1.36877
157 1 15.0643 5.04875 16.6094 15.0643 5.04875 -0.148245 0.935114 -0.0598396 -0.320462
160 1 15.1663 5.80326 0.693193 15.1663 5.80326 0.693193 -1.16698 0.421124 -0.180147
158 1 15.9913 5.9745 0.0281072 15.9913 5.9745 0.0281072 0.575158 0.124355 2.59622
159 1 15.9589 5.10101 0.671438 15.9589 5.10101 0.671438 -0.0902624 1.43512 -0.608923
161 1 0.00267521 6.90127 0.00785841 0.00267521 6.90127 0.00785841 -0.0487131 0.838629 -0.630239
162 1 0.98509 7.61985 0.147867 0.98509 7.61985 0.147867 0.473625 -0.991706 0.610953
163 1 1.04568 6.82263 0.927822 1.04568 6.82263 0.927822 -1.23315 0.0637175 0.664941
164 1 0.056857 7.52634 0.829823 0.056857 7.52634 0.829823 -0.431721 -0.476679 0.483058
165 1 1.77177 6.77436 0.0477874 1.77177 6.77436 0.0477874 0.339831 -0.978068 -0.965771
166 1 2.72518 7.58433 16.5093 2.72518 7.58433 -0.248323 0.406697 1.0706 0.410819
167 1 2.67827 6.70729 0.620752 2.67827 6.70729 0.620752 0.405645 0.770246 -0.813417
168 1 1.84119 7.49588 0.821195 1.84119 7.49588 0.821195 0.933328 0.390002 0.068932
169 1 3.42863 6.74709 16.5846 3.42863 6.74709 -0.173023 -0.210234 0.868812 -0.159721
170 1 4.14187 7.50208 16.7497 4.14187 7.50208 -0.00796906 0.22533 0.21272 0.890319
171 1 4.23038 6.77062 0.761696 4.23038 6.77062 0.761696 0.0912771 0.28634 0.0838194
172 1 3.29997 7.57008 0.653173 3.29997 7.57008 0.653173 -0.117607 1.05445 -1.30686
173 1 4.91959 6.66217 16.6678 4.91959 6.66217 -0.0898473 0.913814 -0.0446243 -1.22244
174 1 5.98032 7.55332 0.132794 5.98032 7.55332 0.132794 0.263871 -0.0449359 1.40337
175 1 5.78135 6.59007 0.719701 5.78135 6.59007 0.719701 1.02297 -0.297506 0.197328
176 1 5.10326 7.4346 0.772004 5.10326 7.4346 0.772004 -1.54779 -0.209416 -1.15041
177 1 6.74149 6.73392 0.120025 6.74149 6.73392 0.120025 0.345784 -0.297674 -0.25067
178 1 7.51467 7.54405 0.0840284 7.51467 7.54405 0.0840284 -0.114186 -0.637052 0.452151
179 1 7.61019 6.37223 0.739074 7.61019 6.37223 0.739074 -0.266454 0.058165 -0.242873
180 1 6.99557 7.51835 1.076 6.99557 7.51835 1.076 0.943604 -0.35017 0.896061
181 1 8.21306 6.73093 0.0275739 8.21306 6.73093 0.0275739 0.751901 0.42862 0.0216037
184 1 8.6194 7.30261 0.993519 8.6194 7.30261 0.993519 0.22705 0.0486954 0.239321
182 1 9.38067 7.51969 0.0141723 9.38067 7.51969 0.0141723 0.0211923 0.0850423 -0.563663
183 1 9.28465 6.4353 0.748724 9.28465 6.4353 0.748724 0.619434 -0.637567 0.312501
185 1 10.2047 6.65149 0.0227947 10.2047 6.65149 0.0227947 -0.854866 -1.13951 0.600219
188 1 9.96617 7.363 1.02795 9.96617 7.363 1.02795 0.470409 -0.302043 -1.23077
186 1 10.7746 7.66335 16.7449 10.7746 7.66335 -0.012742 0.90889 0.448781 -0.355953
187 1 10.9752 6.83093 0.833401 10.9752 6.83093 0.833401 0.443148 0.622227 0.716536
189 1 11.6909 6.59668 16.6232 11.6909 6.59668 -0.134494 -0.778161 0.0983159 0.612677
192 1 11.6651 7.7401 0.479201 11.6651 7.7401 0.479201 -0.402441 -0.760116 -0.368662
190 1 12.6377 7.52655 16.7223 12.6377 7.52655 -0.0353259 -0.83381 0.780191 1.29528
191 1 12.4472 6.71219 0.780598 12.4472 6.71219 0.780598 -0.391238 0.912701 -0.352914
193 1 13.3418 6.51042 16.715 13.3418 6.51042 -0.0426673 0.820705 0.410434 0.0226662
196 1 13.5502 7.59766 0.8368 13.5502 7.59766 0.8368 -0.747045 0.600883 -1.25425
194 1 14.1496 7.42444 16.6182 14.1496 7.42444 -0.139513 -0.340587 0.269688 -0.667292
195 1 14.2965 6.6817 0.768792 14.2965 6.6817 0.768792 -0.708607 0.826555 -0.782605
197 1 15.0309 6.80057 0.0610409 15.0309 6.80057 0.0610409 -0.675247 0.716814 0.571799
200 1 15.1522 7.60947 0.746558 15.1522 7.60947 0.746558 -0.366555 -0.665579 -0.190668
198 1 15.9734 7.65727 0.0839415 15.9734 7.65727 0.0839415 0.307272 -0.317874 0.451865
199 1 15.7809 6.73625 0.766371 15.7809 6.73625 0.766371 -0.456571 -0.470695 -0.1046
201 1 0.0668672 8.33956 0.156869 0.0668672 8.33956 0.156869 -0.292494 2.05704 -0.547943
203 1 0.870674 8.34758 0.865406 0.870674 8.34758 0.865406 -1.48119 -1.14938 0.248941
205 1 1.55854 8.62267 0.0647019 1.55854 8.62267 0.0647019 0.251111 -0.20013 0.238979
207 1 2.55595 8.31744 0.841824 2.55595 8.31744 0.841824 0.0930851 1.11906 -0.505592
209 1 3.47453 8.29469 16.5523 3.47453 8.29469 -0.205324 -1.18652 -0.290085 -0.765974
211 1 4.25704 8.4062 0.589402 4.25704 8.4062 0.589402 -0.956987 0.725578 -0.0929426
213 1 5.14549 8.27472 16.5965 5.14549 8.27472 -0.161154 0.20143 -0.0965572 0.240515
215 1 5.77176 8.31609 0.80774 5.77176 8.31609 0.80774 1.01127 -0.251403 0.15765
217 1 6.89369 8.4374 0.00336491 6.89369 8.4374 0.00336491 0.0774513 -0.226386 -1.85744
219 1 7.70504 8.37665 0.821139 7.70504 8.37665 0.821139 0.653956 0.465372 0.0547309
221 1 8.50778 8.27318 16.4499 8.50778 8.27318 -0.307739 -0.20145 -0.800237 0.572759
223 1 9.01127 8.40976 0.927949 9.01127 8.40976 0.927949 -0.804963 -0.0361035 0.852562
225 1 9.96967 8.39342 0.233494 9.96967 8.39342 0.233494 -0.543702 0.156174 0.202557
227 1 10.9015 8.6937 0.918366 10.9015 8.6937 0.918366 -1.92421 -0.350284 -0.566944
229 1 11.6267 8.45665 16.4397 11.6267 8.45665 -0.317969 0.364914 -0.392868 -0.650137
231 1 12.584 8.25654 0.676462 12.584 8.25654 0.676462 -1.72878 -0.553262 -0.192373
233 1 13.4414 8.26901 16.6773 13.4414 8.26901 -0.0803778 -0.900916 -0.694122 0.309494
235 1 14.2126 8.42028 0.88005 14.2126 8.42028 0.88005 -1.08336 -0.0642569 -0.600144
237 1 14.8008 8.26887 16.7571 14.8008 8.26887 -0.00053452 -1.09154 0.0930771 -0.520113
239 1 15.8913 8.41221 0.838327 15.8913 8.41221 0.838327 -0.501319 -0.605199 -0.246471
202 1 0.72721 9.33067 16.696 0.72721 9.33067 -0.0616683 1.61023 0.187126 -0.196211
204 1 0.0652699 9.27153 0.8589 0.0652699 9.27153 0.8589 0.329609 -0.249389 0.0410132
241 1 16.7209 10.151 16.7545 -0.0367474 10.151 -0.0031987 1.51776 -0.197697 -0.474356
243 1 0.870354 9.9996 0.761132 0.870354 9.9996 0.761132 0.467062 -0.439666 0.0482144
206 1 2.79001 9.15864 0.066636 2.79001 9.15864 0.066636 -0.970205 -0.172092 -1.36314
208 1 1.85317 9.03756 0.956279 1.85317 9.03756 0.956279 -1.18271 0.554098 -1.49306
245 1 1.70762 9.79068 0.105194 1.70762 9.79068 0.105194 0.278179 1.49334 -0.547499
247 1 2.46494 9.95354 0.935364 2.46494 9.95354 0.935364 0.371231 -0.0795204 0.720663
210 1 3.97483 9.36957 16.7141 3.97483 9.36957 -0.0436188 1.36464 -0.835899 -0.424712
212 1 3.28845 9.1982 0.939111 3.28845 9.1982 0.939111 -0.669035 0.317124 -0.728021
249 1 3.19135 10.1094 0.236447 3.19135 10.1094 0.236447 -1.08854 -1.27314 0.801587
251 1 4.11368 10.0324 0.73788 4.11368 10.0324 0.73788 0.137628 0.583514 0.203598
214 1 5.79509 9.19636 0.0470073 5.79509 9.19636 0.0470073 -3.16172e-05 -0.356138 -0.566623
216 1 4.88738 9.2039 0.662986 4.88738 9.2039 0.662986 -0.720392 -0.309079 0.686687
253 1 5.26805 10.1684 0.159627 5.26805 10.1684 0.159627 0.802559 -0.950632 0.539903
255 1 5.75336 10.0173 1.03245 5.75336 10.0173 1.03245 -0.0995696 -0.471745 0.68092
218 1 7.83576 9.11619 16.7414 7.83576 9.11619 -0.0163047 -0.233226 -0.731997 0.647528
220 1 6.72797 9.30302 0.705613 6.72797 9.30302 0.705613 -0.438098 -0.649507 -0.731568
257 1 6.73949 9.9046 16.5977 6.73949 9.9046 -0.159929 -0.573636 0.0723521 0.348384
259 1 7.54287 10.0752 0.582586 7.54287 10.0752 0.582586 1.41263 -0.0166122 -0.20085
224 1 8.69354 9.37332 0.706023 8.69354 9.37332 0.706023 -0.263691 0.620502 0.401287
261 1 8.55719 10.0103 16.6772 8.55719 10.0103 -0.0804799 -0.552444 0.627987 1.10041
222 1 9.53746 9.35871 16.7143 9.53746 9.35871 -0.0433947 0.486749 0.434703 0.0659968
228 1 10.1608 9.36449 0.83248 10.1608 9.36449 0.83248 0.00844788 -0.479366 -0.588028
263 1 9.39405 10.1678 0.812861 9.39405 10.1678 0.812861 0.451435 0.687243 -0.0168565
265 1 10.1205 10.295 0.0030349 10.1205 10.295 0.0030349 -0.0768812 0.698925 -1.22786
226 1 10.6253 9.13651 16.5507 10.6253 9.13651 -0.206971 -0.114186 0.071844 0.974944
232 1 11.8443 9.03407 0.490164 11.8443 9.03407 0.490164 -0.797287 -0.574119 0.275939
267 1 11.0889 10.0581 0.84459 11.0889 10.0581 0.84459 -0.16425 1.18965 -0.754781
269 1 11.4911 10.0588 16.526 11.4911 10.0588 -0.231657 -0.0723912 0.288612 -1.92856
230 1 12.797 9.15715 16.7 12.797 9.15715 -0.0576442 0.117133 0.182979 0.226413
236 1 13.4151 9.40514 0.763137 13.4151 9.40514 0.763137 0.145087 0.795351 0.762992
271 1 12.3457 9.95635 0.578405 12.3457 9.95635 0.578405 1.34597 -1.41883 -1.42189
273 1 13.355 10.1985 16.7356 13.355 10.1985 -0.0220648 0.388116 0.779254 -0.13894
234 1 14.1073 9.19254 16.7338 14.1073 9.19254 -0.0238506 1.476 0.393507 -0.246016
240 1 15.0343 9.15172 0.584387 15.0343 9.15172 0.584387 -0.55778 0.00128115 0.776032
275 1 14.3685 9.99069 0.80861 14.3685 9.99069 0.80861 -0.0329442 0.701689 -0.67101
277 1 15.0302 10.1332 16.4654 15.0302 10.1332 -0.292283 -0.789022 -0.639178 -0.21387
238 1 16.0157 9.2229 0.0237788 16.0157 9.2229 0.0237788 -0.084632 1.09394 -1.10554
279 1 15.5441 10.0222 0.753961 15.5441 10.0222 0.753961 0.627415 0.950579 0.812567
242 1 0.770515 11.015 0.0493961 0.770515 11.015 0.0493961 -1.77823 -1.46343 0.0224753
244 1 16.4444 10.956 0.656041 -0.313237 10.956 0.656041 0.322911 -0.284878 0.0521374
281 1 16.6383 11.6386 16.6061 -0.119397 11.6386 -0.151524 0.269009 -0.971134 -0.256152
283 1 0.645158 11.7813 1.07843 0.645158 11.7813 1.07843 -0.731252 -0.878371 -0.630622
246 1 2.44866 10.8363 0.104386 2.44866 10.8363 0.104386 0.967806 0.175825 -0.0205096
248 1 1.4557 10.9372 0.889752 1.4557 10.9372 0.889752 -1.23154 0.00745237 0.289875
285 1 1.69975 11.531 16.7258 1.69975 11.531 -0.0318361 -1.18538 0.495986 0.00282368
287 1 2.4455 11.7435 0.881191 2.4455 11.7435 0.881191 -0.711446 0.8066 -0.942709
250 1 4.18088 10.7247 0.0246955 4.18088 10.7247 0.0246955 1.22863 0.0455309 -0.524837
252 1 3.32273 10.91 0.993006 3.32273 10.91 0.993006 0.881514 0.651856 -0.311556
289 1 3.39468 11.4459 0.0370508 3.39468 11.4459 0.0370508 -0.586011 -0.963396 0.760258
291 1 4.08426 11.6959 0.848733 4.08426 11.6959 0.848733 -0.0102671 1.07025 -0.524578
254 1 6.14413 10.7805 0.101066 6.14413 10.7805 0.101066 0.173624 -0.344218 -0.00885623
256 1 4.91585 10.9245 0.921911 4.91585 10.9245 0.921911 -0.480065 0.161667 -0.103037
293 1 5.06925 11.6939 0.121872 5.06925 11.6939 0.121872 -0.20928 0.402038 0.456959
295 1 5.63189 11.6735 0.996399 5.63189 11.6735 0.996399 -1.16491 0.290433 1.47358
258 1 7.51432 11.0327 16.6843 7.51432 11.0327 -0.0733885 -0.639705 -0.553398 -0.201452
260 1 6.60181 10.7389 0.966931 6.60181 10.7389 0.966931 -0.251014 -0.848768 -0.553193
297 1 6.5357 11.7421 0.241101 6.5357 11.7421 0.241101 0.255648 0.196941 -0.371307
299 1 7.4308 11.5999 1.08385 7.4308 11.5999 1.08385 -0.0972472 -0.0392445 -0.844416
264 1 8.54418 11.09 0.868563 8.54418 11.09 0.868563 1.33248 -1.29729 0.762912
301 1 8.33671 11.7892 16.6425 8.33671 11.7892 -0.115193 0.691721 -0.445415 0.678309
262 1 9.24021 10.8843 0.0613025 9.24021 10.8843 0.0613025 0.995431 1.45672 0.63386
268 1 10.2874 10.8872 0.913454 10.2874 10.8872 0.913454 -0.846104 0.791614 0.930733
303 1 9.37718 11.8025 0.972155 9.37718 11.8025 0.972155 0.625356 -0.309032 -0.816722
305 1 10.0012 11.7183 0.0759013 10.0012 11.7183 0.0759013 1.44602 0.100139 -0.652919
266 1 10.9168 10.9773 0.0752709 10.9168 10.9773 0.0752709 0.938447 0.0943753 -0.0472578
272 1 11.8297 11.0051 1.05025 11.8297 11.0051 1.05025 -0.0760735 -0.713492 1.12245
307 1 10.9611 11.7993 0.709663 10.9611 11.7993 0.709663 0.108079 0.749024 -1.8086
309 1 11.7911 11.7432 0.00595823 11.7911 11.7432 0.00595823 0.966388 -0.0546696 1.08517
270 1 12.2624 10.8294 0.0106361 12.2624 10.8294 0.0106361 0.335291 0.463099 -1.03169
276 1 13.2493 11.213 0.680131 13.2493 11.213 0.680131 -0.0992167 -0.400501 0.42336
311 1 12.5002 11.9559 0.828636 12.5002 11.9559 0.828636 -0.382552 0.35631 -0.962253
313 1 13.5163 11.8293 16.5521 13.5163 11.8293 -0.205573 0.643549 -0.330045 -0.30546
274 1 14.3669 10.9771 16.6399 14.3669 10.9771 -0.117798 0.55054 -1.07439 -0.522942
280 1 15.0914 10.9287 0.705111 15.0914 10.9287 0.705111 -0.635144 0.0814108 0.533667
315 1 14.2723 11.6841 0.793372 14.2723 11.6841 0.793372 0.663157 -0.0736265 0.238325
317 1 14.8791 11.8602 16.712 14.8791 11.8602 -0.045671 -1.07395 0.344736 0.300711
278 1 15.7148 10.9196 16.6006 15.7148 10.9196 -0.157073 -0.119292 0.836753 -0.788315
319 1 15.8966 11.8483 0.853533 15.8966 11.8483 0.853533 -0.515193 -0.4548 0.297256
282 1 0.746389 12.3671 0.0493255 0.746389 12.3671 0.0493255 0.81637 -1.93898 -1.51388
284 1 16.6251 12.7248 0.848533 -0.132597 12.7248 0.848533 -0.13329 -0.0775636 -0.234276
321 1 16.7115 13.4572 0.0187366 -0.0461874 13.4572 0.0187366 -0.580648 -1.57146 -1.15259
323 1 0.713338 13.2681 0.937187 0.713338 13.2681 0.937187 -0.184462 -0.341895 0.460125
286 1 2.70439 12.1948 16.7284 2.70439 12.1948 -0.0292914 -0.907446 -0.419617 -0.147438
288 1 1.4714 12.4322 0.875973 1.4714 12.4322 0.875973 -0.135691 -0.399665 1.0314
325 1 1.68004 13.0058 0.0316663 1.68004 13.0058 0.0316663 0.359759 0.00906542 -0.478272
327 1 2.36615 13.081 0.892466 2.36615 13.081 0.892466 0.0162383 0.313731 0.359054
290 1 4.29857 12.3359 16.6146 4.29857 12.3359 -0.14304 -1.10915 -0.1905 -0.340993
292 1 3.43065 12.5314 1.13149 3.43065 12.5314 1.13149 0.894394 -0.264989 0.431388
329 1 3.5048 13.2591 0.0307005 3.5048 13.2591 0.0307005 1.23836 -0.569878 -0.515565
331 1 4.22103 13.3431 1.02227 4.22103 13.3431 1.02227 -0.890562 -1.72853 0.0304399
294 1 5.70321 12.512 0.162225 5.70321 12.512 0.162225 -0.185163 -0.755617 0.446404
296 1 4.96709 12.5856 0.988603 4.96709 12.5856 0.988603 0.439564 0.117198 0.635451
333 1 5.03464 13.3494 0.149637 5.03464 13.3494 0.149637 0.365476 0.104422 -0.271922
335 1 5.92251 13.4958 0.832458 5.92251 13.4958 0.832458 0.213116 -0.254803 -0.269185
298 1 7.38615 12.2753 0.105407 7.38615 12.2753 0.105407 0.604029 0.759398 -0.0198286
300 1 6.57415 12.6115 0.984708 6.57415 12.6115 0.984708 1.8813 -0.615847 -0.823471
337 1 6.68934 13.1874 0.0952127 6.68934 13.1874 0.0952127 -0.343121 0.100894 1.38866
339 1 7.25074 13.464 0.842898 7.25074 13.464 0.842898 -1.07152 -0.556533 1.04689
304 1 8.26859 12.6352 0.734594 8.26859 12.6352 0.734594 -0.157304 -0.173684 -0.0307547
341 1 8.12794 13.5009 0.187001 8.12794 13.5009 0.187001 -0.147488 0.758204 -0.107267
302 1 9.23142 12.5882 16.6935 9.23142 12.5882 -0.0641516 0.353413 0.138518 0.0572056
308 1 9.99511 12.6501 0.779364 9.99511 12.6501 0.779364 -0.0298075 1.19652 -0.138907
343 1 9.14565 13.347 0.731286 9.14565 13.347 0.731286 -0.730485 -1.37355 0.184158
345 1 10.0362 13.3932 16.7119 10.0362 13.3932 -0.0457618 -0.0147743 -0.76345 0.302669
306 1 10.8645 12.6948 16.6926 10.8645 12.6948 -0.0650454 -1.68037 -0.238343 -0.39559
312 1 11.8499 12.8133 0.561846 11.8499 12.8133 0.561846 0.459549 -0.0140873 -0.468359
347 1 10.9282 13.5892 0.669784 10.9282 13.5892 0.669784 0.757435 -0.483479 0.151954
349 1 11.7926 13.4856 16.3025 11.7926 13.4856 -0.455122 -0.228733 1.1817 -0.218427
310 1 12.6232 12.6312 16.5933 12.6232 12.6312 -0.164376 0.0894584 0.161957 -0.896963
316 1 13.473 12.5009 0.58897 13.473 12.5009 0.58897 -0.68377 0.0286326 -0.954222
351 1 12.8384 13.3357 0.826361 12.8384 13.3357 0.826361 -0.211848 0.00216336 -0.85705
353 1 13.3563 13.591 16.6017 13.3563 13.591 -0.155925 -0.930159 -0.325869 -0.304785
314 1 14.2325 12.7733 16.6081 14.2325 12.7733 -0.149592 -0.719165 -0.620804 -0.217632
320 1 15.0667 12.5902 0.684721 15.0667 12.5902 0.684721 0.459864 0.916522 -0.67062
355 1 14.0125 13.3468 0.80366 14.0125 13.3468 0.80366 0.978508 0.472454 0.697919
357 1 15.1843 13.3384 16.6499 15.1843 13.3384 -0.107822 0.0274203 1.09579 -0.604506
318 1 16.0319 12.5403 0.00197991 16.0319 12.5403 0.00197991 -0.279538 -0.00357572 0.148352
359 1 15.8444 13.5457 0.793626 15.8444 13.5457 0.793626 -0.328253 0.479089 -1.34822
322 1 0.93845 13.8395 0.0329193 0.93845 13.8395 0.0329193 -0.347989 0.341652 0.408458
324 1 16.6238 14.2258 0.787818 -0.133852 14.2258 0.787818 -0.1644 -0.551043 1.11638
361 1 16.6794 15.0175 16.5846 -0.0782806 15.0175 -0.173075 -0.0321659 0.392043 0.514963
363 1 0.809424 14.9547 0.792459 0.809424 14.9547 0.792459 0.280056 0.638556 0.126201
326 1 2.44069 14.0906 0.126151 2.44069 14.0906 0.126151 -0.250129 -0.437836 0.0427774
328 1 1.58126 14.112 0.920763 1.58126 14.112 0.920763 -0.0595291 0.39255 0.220061
365 1 1.73184 15.071 0.0314809 1.73184 15.071 0.0314809 -1.78633 0.161956 -1.04547
367 1 2.39954 14.9895 0.941426 2.39954 14.9895 0.941426 1.51171 -0.140779 -0.10198
330 1 4.1901 14.1783 0.161069 4.1901 14.1783 0.161069 0.144548 0.283667 0.349776
332 1 3.37351 14.1254 0.854379 3.37351 14.1254 0.854379 0.195225 -1.15421 0.365788
369 1 3.29384 14.9784 0.0967214 3.29384 14.9784 0.0967214 -0.448193 -1.53717 -0.72704
371 1 4.24586 15.1167 0.750552 4.24586 15.1167 0.750552 0.476616 -0.45672 0.0320142
334 1 5.76044 14.4796 0.0677055 5.76044 14.4796 0.0677055 0.522463 -0.5475 1.6439