ITEM: TIMESTEP
200
ITEM: NUMBER OF ATOMS
4000
ITEM: BOX BOUNDS pp pp pp
0.0000000000000000e+00 1.6757672110741936e+01
0.0000000000000000e+00 1.6757672110741936e+01
0.0000000000000000e+00 1.6757672110741936e+01
ITEM: ATOMS id type x y z xu yu zu vx vy vz
1 1 0.0027598 16.6567 16.7426 0.0027598 -0.101015 -0.0150998 1.34015 0.252054 0.319924
2 1 0.710399 0.846878 0.0742493 0.710399 0.846878 0.0742493 -0.209477 0.643144 -0.206519
3 1 0.918879 0.0739708 0.860308 0.918879 0.0739708 0.860308 -0.245022 0.000778176 -0.885851
4 1 16.6621 0.575442 0.935924 -0.0955886 0.575442 0.935924 0.170902 -1.69849 -0.263594
5 1 1.68605 16.407 16.5623 1.68605 -0.350699 -0.195372 0.410651 1.40433 0.147912
6 1 2.53849 0.761085 16.6148 2.53849 0.761085 -0.142827 0.588938 0.622622 0.293166
7 1 2.51992 0.131871 0.800372 2.51992 0.131871 0.800372 1.13385 0.343162 -0.336402
8 1 1.72912 0.928008 0.801111 1.72912 0.928008 0.801111 -2.58552 0.374618 0.260118
9 1 3.33563 16.6809 16.7372 3.33563 -0.0768059 -0.0205048 -0.648261 0.806732 1.13163
10 1 4.23404 0.888119 16.6712 4.23404 0.888119 -0.086457 0.556215 -0.886538 -0.373291
11 1 4.22442 16.7042 0.735308 4.22442 -0.0534872 0.735308 0.704 -1.7908 -0.577993
12 1 3.39447 0.875622 0.750381 3.39447 0.875622 0.750381 0.609183 0.400322 0.650458
13 1 5.03701 16.6289 16.6705 5.03701 -0.128761 -0.0871585 -0.151944 -1.78223 0.0229941
14 1 5.76492 0.7516 16.6719 5.76492 0.7516 -0.0857956 0.26169 0.203647 -0.26245
15 1 6.00469 16.6939 0.775159 6.00469 -0.0638002 0.775159 0.352771 -0.916193 0.614741
16 1 5.00035 0.882243 0.762074 5.00035 0.882243 0.762074 1.00317 0.379456 1.49529
17 1 6.63223 0.0835293 16.6471 6.63223 0.0835293 -0.110595 0.851017 -0.68184 0.400886
18 1 7.47599 0.894588 0.0345861 7.47599 0.894588 0.0345861 2.02013 -0.946818 0.986879
19 1 7.60225 0.0105162 0.733951 7.60225 0.0105162 0.733951 0.420563 -0.812362 -1.11181
20 1 6.65452 0.846497 0.7063 6.65452 0.846497 0.7063 -1.23712 0.546101 -0.833421
21 1 8.28265 0.00658379 16.6216 8.28265 0.00658379 -0.136092 -0.985863 1.00039 -0.641577
24 1 8.41816 0.985162 0.919899 8.41816 0.985162 0.919899 0.118749 -0.44662 -0.539229
22 1 9.07899 0.802226 0.0946511 9.07899 0.802226 0.0946511 -1.34671 -0.34878 -1.08123
23 1 9.14308 16.6367 0.715052 9.14308 -0.120963 0.715052 -0.753805 1.33802 -0.521836
25 1 10.2912 16.7058 0.220364 10.2912 -0.0518527 0.220364 0.59073 0.0167228 -1.75885
28 1 10.0179 0.860812 0.675625 10.0179 0.860812 0.675625 0.125241 0.0336014 0.205714
26 1 10.8549 0.823442 16.6334 10.8549 0.823442 -0.124313 1.62411 -0.50703 2.10556
27 1 11.06 16.5229 0.877006 11.06 -0.234725 0.877006 0.64596 0.402532 -0.740122
29 1 11.7124 0.0244936 0.0468949 11.7124 0.0244936 0.0468949 0.228648 -0.0647588 -0.872223
32 1 11.8373 0.648379 0.887057 11.8373 0.648379 0.887057 0.185722 -1.45079 -0.0513542
30 1 12.7237 0.786763 0.121945 12.7237 0.786763 0.121945 0.946767 1.56479 1.43135
31 1 12.7009 0.0328781 0.812407 12.7009 0.0328781 0.812407 -0.0478732 -1.19121 -0.130748
33 1 13.3871 16.6761 16.7102 13.3871 -0.0815478 -0.0474264 0.0824956 0.807983 0.211482
36 1 13.4815 0.901943 0.885363 13.4815 0.901943 0.885363 1.3066 -0.27465 -0.283437
34 1 14.1191 0.810888 16.7328 14.1191 0.810888 -0.0248801 -0.555878 0.703499 0.0130741
35 1 14.2364 0.0255986 0.748594 14.2364 0.0255986 0.748594 -0.0523695 1.96544 -0.0651467
37 1 15.1026 0.105465 0.101107 15.1026 0.105465 0.101107 -0.0792579 0.215222 0.0207772
40 1 15.0921 0.96731 0.73463 15.0921 0.96731 0.73463 0.751655 1.29153 -0.908887
38 1 15.8697 0.915951 16.7373 15.8697 0.915951 -0.0203302 0.834551 0.0115491 -0.639401
39 1 15.8485 16.6321 0.851378 15.8485 -0.12556 0.851378 0.0301377 -0.255431 0.295278
41 1 16.6679 1.70685 0.0225837 -0.0897482 1.70685 0.0225837 -0.105331 -0.607721 -1.32192
42 1 0.963868 2.50439 16.5904 0.963868 2.50439 -0.167228 0.93175 -1.47141 0.606575
43 1 0.775027 1.73045 0.720638 0.775027 1.73045 0.720638 -0.168064 -1.22771 0.866052
44 1 16.7539 2.57487 0.803103 -0.0037687 2.57487 0.803103 1.1411 -0.925736 -0.202341
45 1 1.71287 1.61424 16.6596 1.71287 1.61424 -0.0980698 0.44406 -0.531709 -0.430925
46 1 2.51498 2.56734 16.606 2.51498 2.56734 -0.151657 0.254743 -0.878324 1.45385
47 1 2.62786 1.68551 0.822306 2.62786 1.68551 0.822306 -0.895503 0.414904 -0.76549
48 1 1.75482 2.46167 0.590693 1.75482 2.46167 0.590693 -1.48395 2.08518 -0.136657
49 1 3.44967 1.90455 16.6063 3.44967 1.90455 -0.151373 0.412936 -1.24809 0.240077
50 1 4.22115 2.62543 16.7418 4.22115 2.62543 -0.0158389 -0.382763 -0.460244 0.322261
51 1 4.1484 1.58469 0.749303 4.1484 1.58469 0.749303 0.692491 -0.337834 0.385387
52 1 3.25469 2.539 0.695874 3.25469 2.539 0.695874 0.649522 -0.000734115 0.367559
53 1 4.93002 1.8494 16.7543 4.93002 1.8494 -0.00338158 0.767705 0.0993959 0.243376
54 1 5.7071 2.60842 16.6832 5.7071 2.60842 -0.074488 -0.301133 0.0387043 0.217576
55 1 5.85492 1.6918 0.688735 5.85492 1.6918 0.688735 -1.85346 -0.370465 0.976211
56 1 4.93717 2.45413 0.824112 4.93717 2.45413 0.824112 -0.493124 -0.160281 0.236579
57 1 6.64985 1.6806 16.718 6.64985 1.6806 -0.0396719 -0.676461 1.08112 -0.00283347
58 1 7.43653 2.54042 16.7211 7.43653 2.54042 -0.0365989 -0.867837 -1.06611 1.0239
59 1 7.49835 1.79057 0.72438 7.49835 1.79057 0.72438 0.823027 -0.855679 -0.741337
60 1 6.66476 2.48053 0.688227 6.66476 2.48053 0.688227 0.185483 0.0812725 0.623737
61 1 8.31509 1.66418 16.7411 8.31509 1.66418 -0.0165365 -0.185806 -0.656852 -0.774475
64 1 8.41893 2.49231 0.821293 8.41893 2.49231 0.821293 -1.2459 -0.631794 -0.31483
62 1 9.37633 2.49756 16.7424 9.37633 2.49756 -0.0152956 -0.00465909 0.656704 -1.03521
63 1 9.18232 1.68245 0.713619 9.18232 1.68245 0.713619 -0.00144192 -0.26975 -0.249591
65 1 10.1057 1.58097 16.7109 10.1057 1.58097 -0.0468216 0.424154 -0.0203947 -0.210627
68 1 10.2152 2.32396 0.680665 10.2152 2.32396 0.680665 -0.753247 1.14129 0.0334054
66 1 11.0046 2.24843 16.7255 11.0046 2.24843 -0.0321982 0.353018 -0.438648 0.945286
67 1 10.909 1.4552 0.746145 10.909 1.4552 0.746145 0.997291 -0.360414 -0.871519
69 1 11.8837 1.42362 0.0405956 11.8837 1.42362 0.0405956 -0.687512 0.103486 -0.761092
72 1 11.7873 2.40961 0.605367 11.7873 2.40961 0.605367 -0.952912 0.333097 0.351313
70 1 12.6691 2.49131 16.7093 12.6691 2.49131 -0.0484131 -0.843426 1.19096 -1.49336
71 1 12.6673 1.68721 1.03767 12.6673 1.68721 1.03767 -1.87474 -1.63945 -0.0425669
73 1 13.4743 1.64156 16.7565 13.4743 1.64156 -0.00119139 0.400074 -0.133289 -1.02842
76 1 13.3992 2.46722 0.699298 13.3992 2.46722 0.699298 -0.723126 -0.486183 0.14123
74 1 14.3071 2.58692 16.69 14.3071 2.58692 -0.0676509 -0.929379 1.09314 -0.846026
75 1 14.2715 1.68714 0.853748 14.2715 1.68714 0.853748 -0.281643 0.333888 -0.637717
77 1 14.9841 1.76242 0.0247821 14.9841 1.76242 0.0247821 -0.583817 -0.326095 -0.361445
80 1 14.98 2.56768 0.816175 14.98 2.56768 0.816175 0.627314 0.795713 0.834923
78 1 16.0147 2.56554 16.6938 16.0147 2.56554 -0.0638747 -0.414794 -0.475559 -1.08016
79 1 15.8547 1.82863 0.792406 15.8547 1.82863 0.792406 0.300161 -1.23237 -0.884607
81 1 0.0306827 3.36707 16.633 0.0306827 3.36707 -0.124636 0.684205 0.490103 -0.182967
82 1 0.904424 4.40613 16.7014 0.904424 4.40613 -0.0562958 0.324038 0.180433 -1.57282
83 1 0.827519 3.40445 0.737265 0.827519 3.40445 0.737265 1.7934 -0.0746178 -0.742329
84 1 16.6306 4.07219 0.733703 -0.127114 4.07219 0.733703 1.65752 0.255111 -0.431463
85 1 1.60907 3.35741 0.0663704 1.60907 3.35741 0.0663704 0.157772 1.38757 -0.558409
86 1 2.51408 4.10991 16.5929 2.51408 4.10991 -0.16474 1.20465 0.155355 -0.388666
87 1 2.41922 3.45999 0.7916 2.41922 3.45999 0.7916 0.0400537 0.722113 -1.06315
88 1 1.7043 4.22416 0.690285 1.7043 4.22416 0.690285 0.154893 1.13683 0.903718
89 1 3.27255 3.2349 16.5596 3.27255 3.2349 -0.19806 1.44406 -0.307826 0.468156
90 1 4.23215 4.21295 16.5763 4.23215 4.21295 -0.181354 1.17856 0.205084 -0.675315
91 1 4.24393 3.40761 0.75144 4.24393 3.40761 0.75144 -0.302694 -0.721993 -0.126597
92 1 3.43693 4.18763 0.671044 3.43693 4.18763 0.671044 -0.650922 -0.501355 -0.230791
93 1 4.94822 3.46697 16.6568 4.94822 3.46697 -0.100871 -0.226099 0.287927 0.722783
94 1 5.82996 4.30132 0.0863975 5.82996 4.30132 0.0863975 -0.118434 -0.845665 0.772154
95 1 5.80194 3.24694 0.731264 5.80194 3.24694 0.731264 0.666096 1.47568 -0.160183
96 1 4.9612 4.18156 0.795789 4.9612 4.18156 0.795789 -0.645436 -0.00687386 0.320719
97 1 6.61923 3.39414 16.6742 6.61923 3.39414 -0.0834888 -0.987696 0.397033 0.295685
98 1 7.50218 4.14256 0.0139548 7.50218 4.14256 0.0139548 0.658187 1.27875 0.0412069
99 1 7.78725 3.33067 0.653526 7.78725 3.33067 0.653526 0.533968 -0.01936 -0.751325
100 1 6.71028 4.16187 0.711931 6.71028 4.16187 0.711931 0.416235 -0.330362 -0.430706
101 1 8.57668 3.15246 16.6524 8.57668 3.15246 -0.105292 0.247263 0.114125 -0.693318
104 1 8.47452 4.13347 0.857379 8.47452 4.13347 0.857379 -0.110096 0.31546 -0.255525
102 1 9.37462 4.12599 0.18092 9.37462 4.12599 0.18092 -0.702522 1.22663 0.0259289
103 1 9.14117 3.31232 0.73727 9.14117 3.31232 0.73727 0.0357224 1.19376 -0.775349
105 1 10.1674 3.19355 16.7314 10.1674 3.19355 -0.0262235 -0.256439 1.56363 1.51899
108 1 10.2752 4.22571 0.864198 10.2752 4.22571 0.864198 -0.115799 -1.00538 0.585194
106 1 10.9611 4.05829 0.07575 10.9611 4.05829 0.07575 0.351114 0.429782 -0.207935
107 1 10.9081 3.31215 0.783981 10.9081 3.31215 0.783981 0.0270512 0.493447 -1.488
109 1 11.6723 3.28942 16.7358 11.6723 3.28942 -0.0218484 -0.833243 0.934198 -0.46058
112 1 11.7016 4.32511 1.00863 11.7016 4.32511 1.00863 0.0290091 0.520991 0.384822
110 1 12.5754 4.22971 0.00556306 12.5754 4.22971 0.00556306 -0.68667 0.168017 -0.598305
111 1 12.4336 3.42235 0.726899 12.4336 3.42235 0.726899 -1.31305 1.07625 0.0915112
113 1 13.4078 3.46636 0.0155912 13.4078 3.46636 0.0155912 1.32338 -0.30229 -0.0878713
116 1 13.4724 4.16236 0.878321 13.4724 4.16236 0.878321 0.42956 0.897046 0.57162
114 1 14.1712 4.20575 16.6177 14.1712 4.20575 -0.139974 -0.155006 1.02804 0.123622
115 1 14.1988 3.37 0.805801 14.1988 3.37 0.805801 -0.693829 -0.921068 -0.422501
117 1 14.9128 3.44561 0.0311369 14.9128 3.44561 0.0311369 1.64161 0.183919 0.669158
120 1 14.792 4.22928 0.862722 14.792 4.22928 0.862722 -0.949183 -0.454083 -0.271828
118 1 15.8693 4.18835 16.5854 15.8693 4.18835 -0.17227 0.640952 0.950224 0.0491057
119 1 15.8936 3.30395 0.664825 15.8936 3.30395 0.664825 0.19517 0.00680574 0.341884
121 1 0.0318795 5.21005 16.4831 0.0318795 5.21005 -0.274558 0.118415 0.400606 -0.920641
122 1 0.829896 5.84903 16.7422 0.829896 5.84903 -0.0154987 0.49113 -1.31644 0.11717
123 1 0.682994 4.90821 0.806962 0.682994 4.90821 0.806962 -0.160822 0.718288 1.09308
124 1 16.6724 5.78522 0.749215 -0.0852723 5.78522 0.749215 0.44805 0.782104 1.45713
125 1 1.71064 5.16844 16.7299 1.71064 5.16844 -0.027803 -0.103018 -0.915909 1.0867
126 1 2.53951 5.95676 16.7553 2.53951 5.95676 -0.00238309 0.115759 0.421287 0.462621
127 1 2.4547 4.85774 0.688755 2.4547 4.85774 0.688755 -0.788173 -0.928457 0.588004
128 1 1.7098 5.91071 0.708621 1.7098 5.91071 0.708621 -1.28698 -0.506823 0.292586
129 1 3.40228 5.13182 16.7497 3.40228 5.13182 -0.00802103 0.384287 -1.10235 -0.813217
130 1 4.36081 5.81575 16.6359 4.36081 5.81575 -0.121769 -0.3092 0.418876 -0.0737122
131 1 4.16013 5.10637 0.757691 4.16013 5.10637 0.757691 -0.841365 -0.407614 -0.690465
132 1 3.45238 5.97687 0.710047 3.45238 5.97687 0.710047 0.429307 0.594945 1.60486
133 1 5.01811 5.06502 16.612 5.01811 5.06502 -0.145667 0.0140298 0.853839 -0.134833
134 1 5.69478 5.91722 16.7105 5.69478 5.91722 -0.0471626 0.545533 -0.681735 -0.460871
135 1 5.82337 5.12202 0.866303 5.82337 5.12202 0.866303 0.801836 0.671107 0.983217
136 1 4.93668 5.74336 0.767962 4.93668 5.74336 0.767962 0.00967525 0.538025 -0.965458
137 1 6.59652 5.0088 0.165753 6.59652 5.0088 0.165753 0.259029 1.78548 0.683862
138 1 7.43457 5.86319 0.0440196 7.43457 5.86319 0.0440196 -0.81037 -0.865211 -1.26008
139 1 7.44453 4.98059 0.780149 7.44453 4.98059 0.780149 -0.4264 -0.157849 -0.593111
140 1 6.67448 5.76447 0.863034 6.67448 5.76447 0.863034 0.622305 -0.353272 -0.172014
141 1 8.33458 5.03776 0.0666832 8.33458 5.03776 0.0666832 -0.270827 -0.0941772 0.760306
144 1 8.44982 5.92433 0.743197 8.44982 5.92433 0.743197 0.779089 -0.00935816 1.38161
142 1 9.28664 5.63936 0.0264459 9.28664 5.63936 0.0264459 -1.2529 -1.18744 -0.0911603
143 1 9.12498 5.00287 0.765948 9.12498 5.00287 0.765948 1.01451 -0.0167624 0.516512
145 1 10.2444 4.8379 0.124348 10.2444 4.8379 0.124348 0.577919 -1.18492 -0.300579
148 1 9.91195 5.6912 0.842069 9.91195 5.6912 0.842069 -0.136958 -0.0043536 -0.729086
146 1 10.8634 5.74992 0.0899026 10.8634 5.74992 0.0899026 1.15683 0.802399 -0.515719
147 1 10.9052 5.14352 0.98535 10.9052 5.14352 0.98535 -0.689721 -0.0465816 0.995984
149 1 11.8066 5.09063 0.069524 11.8066 5.09063 0.069524 0.444469 -0.326467 -0.358403
152 1 11.7077 5.87671 0.852101 11.7077 5.87671 0.852101 0.75633 0.0967613 0.339982
150 1 12.509 5.86591 0.164074 12.509 5.86591 0.164074 0.359017 -1.36354 -0.594378
151 1 12.6029 4.9615 0.885985 12.6029 4.9615 0.885985 -0.796894 -1.109 0.0597188
153 1 13.5176 5.10919 16.7487 13.5176 5.10919 -0.00892238 -1.16012 -0.147699 -0.541787
156 1 13.4181 6.05409 0.891331 13.4181 6.05409 0.891331 -0.828531 0.255951 1.56681
154 1 14.4236 5.87774 0.0474797 14.4236 5.87774 0.0474797 -1.49454 -0.728421 1.10196
155 1 14.2641 5.11565 0.985675 14.2641 5.11565 0.985675 0.370201 -0.162516 0.533443
157 1 15.0871 4.98828 0.166272 15.0871 4.98828 0.166272 0.747637 -1.04556 1.26214
160 1 15.1903 5.95522 0.972222 15.1903 5.95522 0.972222 1.72332 -0.696496 0.24414
158 1 16.057 5.96877 16.6898 16.057 5.96877 -0.0678654 -0.634557 -0.901982 0.0577573
159 1 16.074 4.97256 0.615427 16.074 4.97256 0.615427 0.332469 -0.353061 -0.493521
161 1 0.162559 6.80031 16.5253 0.162559 6.80031 -0.232322 -1.24897 -0.392148 0.402916
162 1 0.974129 7.42249 16.7552 0.974129 7.42249 -0.0024297 -1.65723 1.21742 -1.52922
163 1 0.797996 6.5818 0.818346 0.797996 6.5818 0.818346 -1.03355 0.0327299 -0.936114
164 1 0.122228 7.45635 0.858719 0.122228 7.45635 0.858719 0.601943 0.594696 -0.215764
165 1 1.83893 6.72168 16.5459 1.83893 6.72168 -0.211795 0.0259181 -0.112706 -0.586202
166 1 2.56028 7.47925 16.7336 2.56028 7.47925 -0.0240709 0.262604 0.531102 0.487505
167 1 2.42033 6.77558 0.833152 2.42033 6.77558 0.833152 -0.436282 0.606629 0.583739
168 1 1.59366 7.64731 0.86917 1.59366 7.64731 0.86917 -2.10192 0.253374 -0.0763768
169 1 3.36729 6.67737 16.6678 3.36729 6.67737 -0.0898781 -0.590979 -0.830037 -0.881863
170 1 4.05687 7.50331 16.4514 4.05687 7.50331 -0.306298 0.488375 0.165408 1.25741
171 1 4.26397 6.90959 0.607162 4.26397 6.90959 0.607162 0.318281 0.816197 -0.514323
172 1 3.34407 7.6064 0.661118 3.34407 7.6064 0.661118 0.999957 0.643728 1.13295
173 1 5.0933 6.83913 16.681 5.0933 6.83913 -0.0766592 -0.39751 -0.508941 -0.0841828
174 1 5.98921 7.57408 0.0946283 5.98921 7.57408 0.0946283 -1.09502 0.397615 -0.594477
175 1 5.73554 6.75499 0.856809 5.73554 6.75499 0.856809 -0.563488 0.0684271 -0.700508
176 1 5.09929 7.62348 0.764134 5.09929 7.62348 0.764134 -0.126135 0.658777 1.36921
177 1 6.67471 6.65551 16.7572 6.67471 6.65551 -0.000481514 1.08024 1.19465 0.655588
178 1 7.51222 7.32736 0.0552193 7.51222 7.32736 0.0552193 0.566792 -0.742521 0.236016
179 1 7.42124 6.53993 0.803685 7.42124 6.53993 0.803685 -0.0320175 -0.764199 0.93908
180 1 6.79998 7.56996 0.788509 6.79998 7.56996 0.788509 -1.41064 -1.64642 0.380378
181 1 8.44174 6.63026 16.6681 8.44174 6.63026 -0.0895238 -0.681325 -0.345739 0.65238
184 1 8.31517 7.27286 0.803506 8.31517 7.27286 0.803506 -0.697446 0.351443 -0.253899
182 1 9.34061 7.35639 16.576 9.34061 7.35639 -0.181683 -0.708946 -0.648717 0.772432
183 1 9.22796 6.70133 0.681016 9.22796 6.70133 0.681016 -0.116901 -0.273347 -0.348656
185 1 10.0418 6.56778 16.6424 10.0418 6.56778 -0.115267 -0.516072 0.0214751 -0.00946736
188 1 9.83882 7.55459 0.805725 9.83882 7.55459 0.805725 0.548893 -0.255521 0.300761
186 1 10.952 7.34781 16.6654 10.952 7.34781 -0.0922301 -0.151694 0.0699589 0.478571
187 1 10.6633 6.6617 0.792578 10.6633 6.6617 0.792578 -0.801503 1.58908 -1.05485
189 1 11.8395 6.69311 16.6954 11.8395 6.69311 -0.0622458 -0.59101 -1.40586 0.364533
192 1 11.5504 7.53449 0.913777 11.5504 7.53449 0.913777 -0.922929 -0.777218 0.0524393
190 1 12.3858 7.63392 16.4288 12.3858 7.63392 -0.328877 -0.423184 0.679284 0.34463
191 1 12.4679 6.73146 0.825339 12.4679 6.73146 0.825339 1.60523 -0.610827 0.310693
193 1 13.3826 6.85849 16.6688 13.3826 6.85849 -0.0888931 0.0981478 -0.414711 0.0448345
196 1 13.429 7.56939 0.662974 13.429 7.56939 0.662974 0.801667 0.0786295 -0.689573
194 1 14.3486 7.59152 16.6078 14.3486 7.59152 -0.149876 -0.118738 -0.487435 -0.461611
195 1 14.1785 6.80615 0.623688 14.1785 6.80615 0.623688 0.880972 0.244068 0.276091
197 1 15.1553 6.70441 16.7368 15.1553 6.70441 -0.0208767 0.414047 0.397549 -0.51729
200 1 15.077 7.49231 0.784049 15.077 7.49231 0.784049 0.474314 0.266472 0.979456
198 1 16.0562 7.4746 16.6422 16.0562 7.4746 -0.115474 1.64093 0.776021 0.0248507
199 1 15.9152 6.75278 0.801516 15.9152 6.75278 0.801516 1.12846 -0.924353 -0.553714
201 1 0.101185 8.34212 0.0352076 0.101185 8.34212 0.0352076 0.621292 -1.08172 -1.04054
203 1 0.856921 8.36707 0.827312 0.856921 8.36707 0.827312 0.406 -1.92274 1.22956
205 1 1.63034 8.43035 16.7235 1.63034 8.43035 -0.0341386 0.197332 0.512076 -0.221563
207 1 2.35249 8.36887 0.837161 2.35249 8.36887 0.837161 0.341311 -0.897601 0.20793
209 1 3.15576 8.52748 0.0362174 3.15576 8.52748 0.0362174 0.17583 -0.12229 -0.119191
211 1 4.45338 8.52647 0.831312 4.45338 8.52647 0.831312 0.589813 0.20653 -1.46466
213 1 5.20076 8.33722 16.6955 5.20076 8.33722 -0.0622029 1.35125 0.060679 -0.444901
215 1 5.92457 8.52103 0.80502 5.92457 8.52103 0.80502 -0.556333 -0.0358102 1.33025
217 1 6.89061 8.39188 16.7541 6.89061 8.39188 -0.00358409 -0.599583 1.2365 -0.583881
219 1 7.74036 8.17112 0.795176 7.74036 8.17112 0.795176 -0.0871964 -0.168324 0.414052
221 1 8.60925 8.16267 16.7215 8.60925 8.16267 -0.0361657 0.476101 0.541431 -0.384245
223 1 9.06626 8.14858 1.0401 9.06626 8.14858 1.0401 0.470042 0.257459 -0.258986
225 1 9.75935 8.31281 16.6849 9.75935 8.31281 -0.0728085 1.15229 -0.553506 -0.0971725
227 1 10.7031 8.23946 0.773682 10.7031 8.23946 0.773682 -0.0589229 0.477869 0.442088
229 1 11.5317 8.24101 0.0338662 11.5317 8.24101 0.0338662 0.0595842 0.16403 1.34308
231 1 12.5558 8.37697 0.723911 12.5558 8.37697 0.723911 0.410024 -0.179031 0.0867373
233 1 13.2805 8.30078 16.6497 13.2805 8.30078 -0.107948 -0.419915 0.84206 -0.51519
235 1 14.1363 8.31152 0.765906 14.1363 8.31152 0.765906 -0.633224 -1.27148 -0.288256
237 1 14.9899 8.43969 0.0334215 14.9899 8.43969 0.0334215 -0.136668 0.588301 -0.867234
239 1 15.9396 8.14806 0.89073 15.9396 8.14806 0.89073 -0.335238 -0.177562 -0.237938
202 1 0.822191 9.23996 16.6598 0.822191 9.23996 -0.0978791 -0.00819423 -0.195279 0.356459
204 1 0.111866 9.0681 0.878453 0.111866 9.0681 0.878453 -0.41223 0.532363 -0.649304
241 1 16.7328 10.0965 16.6559 -0.0249193 10.0965 -0.101761 -0.517612 0.714432 -1.00273
243 1 0.637548 10.0365 0.829231 0.637548 10.0365 0.829231 -0.932429 -0.22077 0.603999
206 1 2.38189 9.44553 0.0943184 2.38189 9.44553 0.0943184 0.306203 0.685521 -0.277681
208 1 1.46586 9.23764 0.974953 1.46586 9.23764 0.974953 -1.18171 -0.304274 -0.241951
245 1 1.59529 10.1717 0.300331 1.59529 10.1717 0.300331 0.0884033 -0.380437 -0.18397
247 1 2.58155 9.94584 0.993805 2.58155 9.94584 0.993805 1.34153 1.34857 -0.613545
210 1 4.17643 9.14511 0.030719 4.17643 9.14511 0.030719 -1.28293 0.0420963 -0.145849
212 1 3.47738 9.23213 0.998471 3.47738 9.23213 0.998471 0.468237 -0.0686612 0.172821
249 1 3.38792 9.81088 16.743 3.38792 9.81088 -0.0146911 0.278027 0.321163 -0.49317
251 1 4.25183 9.9372 0.869907 4.25183 9.9372 0.869907 -0.33796 0.271793 1.17557
214 1 6.02062 9.30359 0.0171578 6.02062 9.30359 0.0171578 -0.804922 0.705608 1.69594
216 1 5.12356 9.3032 0.806315 5.12356 9.3032 0.806315 0.501334 1.1128 0.139968
253 1 5.0077 9.8962 16.6959 5.0077 9.8962 -0.0617469 -0.479058 -1.64989 0.0154582
255 1 6.10937 9.98298 0.839032 6.10937 9.98298 0.839032 0.548884 -0.619284 -1.06847
218 1 7.85659 8.99957 0.164381 7.85659 8.99957 0.164381 0.562272 -1.17534 -0.378928
220 1 6.81605 9.13613 0.810948 6.81605 9.13613 0.810948 -0.376948 0.249995 1.5909
257 1 6.78481 10.0243 0.0924096 6.78481 10.0243 0.0924096 -0.602642 1.21326 -0.35237
259 1 7.73451 10.0654 0.833397 7.73451 10.0654 0.833397 0.19389 0.303757 0.171551
224 1 8.58562 9.36962 0.803159 8.58562 9.36962 0.803159 0.105176 -0.151719 0.259827
261 1 8.56425 9.8985 16.5618 8.56425 9.8985 -0.195875 -0.702989 -0.139962 0.325077
222 1 9.58081 9.4193 16.7528 9.58081 9.4193 -0.00486014 -0.200038 0.425793 0.556637
228 1 10.156 9.06843 0.927486 10.156 9.06843 0.927486 -0.551053 0.229956 0.0237855
263 1 9.37662 10.0341 0.896351 9.37662 10.0341 0.896351 -0.554221 -0.685016 -0.203065
265 1 10.2877 10.1609 16.7436 10.2877 10.1609 -0.0140671 -0.106084 -0.675163 0.523687
226 1 10.9053 9.28489 16.5736 10.9053 9.28489 -0.184066 0.53334 -0.869782 0.0510122
232 1 11.6391 9.22862 0.827891 11.6391 9.22862 0.827891 1.22662 -0.840764 0.676974
267 1 10.9979 10.1454 0.881684 10.9979 10.1454 0.881684 -0.964642 0.436219 1.00764
269 1 11.7424 10.0989 16.5124 11.7424 10.0989 -0.245246 -0.184264 0.216856 1.26651
230 1 12.1981 9.1859 16.6467 12.1981 9.1859 -0.111009 -0.330806 0.0247786 0.49842
236 1 13.3488 9.14963 0.802168 13.3488 9.14963 0.802168 -1.0308 -1.13618 0.102833
271 1 12.5284 9.9687 0.727823 12.5284 9.9687 0.727823 -0.409586 -0.24308 0.773734
273 1 13.4706 10.1136 16.7187 13.4706 10.1136 -0.0390118 -0.0894586 -0.0154365 0.730804
234 1 14.1976 9.34288 0.0461427 14.1976 9.34288 0.0461427 -0.639761 -0.219026 -0.254977
240 1 14.8934 9.17007 0.846177 14.8934 9.17007 0.846177 -0.173698 0.806806 0.700495
275 1 14.2698 9.99578 0.865219 14.2698 9.99578 0.865219 -0.706729 -2.02457 0.736751
277 1 15.0445 10.1093 0.147959 15.0445 10.1093 0.147959 -0.701946 -0.103319 -0.184687
238 1 15.8339 9.25148 0.121292 15.8339 9.25148 0.121292 0.140305 0.864458 0.406973
279 1 16.0808 10.0025 0.758227 16.0808 10.0025 0.758227 0.160463 0.532411 0.039383
242 1 0.750593 10.8133 16.7427 0.750593 10.8133 -0.0149696 -0.286805 0.854176 0.0637711
244 1 16.6993 10.9129 0.753609 -0.0583377 10.9129 0.753609 1.33867 -0.470938 -0.445727
281 1 16.708 11.7418 0.0660033 -0.0496717 11.7418 0.0660033 1.6401 0.0307438 -0.193171
283 1 0.896663 11.5893 0.727082 0.896663 11.5893 0.727082 0.131875 -0.324999 0.923834
246 1 2.55926 10.7162 0.203151 2.55926 10.7162 0.203151 -1.08681 -1.7598 -0.133543
248 1 1.5727 10.8435 1.17254 1.5727 10.8435 1.17254 0.410183 -0.835616 0.155857
285 1 1.63107 11.5361 16.7187 1.63107 11.5361 -0.038992 1.21638 -0.0982278 -0.377411
287 1 2.22994 11.5974 0.905234 2.22994 11.5974 0.905234 0.667388 -0.278475 0.263747
250 1 4.26503 10.8795 0.131404 4.26503 10.8795 0.131404 0.359271 0.284444 -0.170018
252 1 3.49255 11.0193 0.900916 3.49255 11.0193 0.900916 -0.151442 -0.212258 0.883955
289 1 3.41503 11.6443 16.6761 3.41503 11.6443 -0.0815328 -0.917599 -0.582743 1.16306
291 1 4.17707 11.7767 1.05279 4.17707 11.7767 1.05279 -0.40438 0.556302 -1.1405
254 1 5.75945 10.8191 16.7285 5.75945 10.8191 -0.0291967 1.45137 -0.382891 0.581538
256 1 5.07403 10.9963 0.846231 5.07403 10.9963 0.846231 0.247693 -0.778463 -1.60044
293 1 5.16505 11.7869 0.104502 5.16505 11.7869 0.104502 -0.726738 0.572966 -0.000547521
295 1 6.02675 11.6461 0.976029 6.02675 11.6461 0.976029 1.33613 -0.174944 0.473387
258 1 7.70076 10.7743 0.00935329 7.70076 10.7743 0.00935329 0.248643 -0.467312 0.792616
260 1 6.83125 10.8513 0.953512 6.83125 10.8513 0.953512 -1.39911 0.914316 -1.28661
297 1 6.71609 11.5493 0.0719168 6.71609 11.5493 0.0719168 0.869766 0.400562 -0.951994
299 1 7.64997 11.7277 0.8735 7.64997 11.7277 0.8735 0.123487 1.07426 0.215315
264 1 8.58344 10.792 0.715259 8.58344 10.792 0.715259 1.01209 0.0349929 -0.230877
301 1 8.54286 11.912 0.0912461 8.54286 11.912 0.0912461 -0.335384 0.502781 -1.49199
262 1 9.34024 11.0013 16.7256 9.34024 11.0013 -0.0320891 -0.66729 -1.07872 1.08875
268 1 10.2222 11.0079 0.744553 10.2222 11.0079 0.744553 -1.24278 -1.08373 -0.455162
303 1 9.40009 11.8793 0.826511 9.40009 11.8793 0.826511 0.344507 0.458172 -1.25425
305 1 10.2974 11.7895 16.7493 10.2974 11.7895 -0.00834789 -0.774731 0.628048 -0.506277
266 1 11.1163 10.927 16.7286 11.1163 10.927 -0.0290375 -0.906471 -0.773883 0.457667
272 1 11.7311 10.981 0.933744 11.7311 10.981 0.933744 0.462649 0.739452 -0.141158
307 1 11.0718 11.6831 0.733919 11.0718 11.6831 0.733919 -0.185967 1.11432 -0.439835
309 1 11.9869 11.9405 16.6642 11.9869 11.9405 -0.0935034 1.29257 -1.23715 0.692389
270 1 12.609 10.9139 16.6547 12.609 10.9139 -0.102922 -0.79061 -2.05299 0.199428
276 1 13.4921 11.0123 0.880456 13.4921 11.0123 0.880456 -1.25161 -0.264706 -0.977632
311 1 12.583 11.7713 0.874015 12.583 11.7713 0.874015 0.39094 -0.934397 -0.41734
313 1 13.4035 11.7745 0.139497 13.4035 11.7745 0.139497 -0.512355 -0.0205572 0.0731615
274 1 14.1358 10.9969 0.0699524 14.1358 10.9969 0.0699524 -0.104769 -0.226694 0.977631
280 1 14.9468 11.0575 0.964686 14.9468 11.0575 0.964686 -0.58223 0.125515 -0.858489
315 1 14.2055 11.8639 1.01299 14.2055 11.8639 1.01299 1.58431 -0.778762 -0.488782
317 1 15.0024 11.6466 0.0101129 15.0024 11.6466 0.0101129 0.168749 0.562035 0.531427
278 1 15.9287 10.8181 0.046296 15.9287 10.8181 0.046296 1.25583 -0.863616 0.388061
319 1 15.9034 11.7929 0.739046 15.9034 11.7929 0.739046 -0.161809 -0.96794 -0.051091
282 1 1.01525 12.4312 16.6324 1.01525 12.4312 -0.125246 0.765525 0.00206276 0.195377
284 1 16.6822 12.5549 0.702611 -0.0754485 12.5549 0.702611 -0.463336 0.702147 -0.639331
321 1 0.058599 13.2463 16.5643 0.058599 13.2463 -0.193411 0.382578 0.935417 -0.802836
323 1 0.771207 13.5343 0.824041 0.771207 13.5343 0.824041 -0.87405 -1.2961 -0.494233
286 1 2.3284 12.3261 16.7043 2.3284 12.3261 -0.0533886 0.722003 1.16426 0.684309
288 1 1.5958 12.4299 0.743129 1.5958 12.4299 0.743129 1.41347 1.1344 0.0767303
325 1 1.59299 13.2863 0.100002 1.59299 13.2863 0.100002 0.613129 0.899459 1.2826
327 1 2.42677 13.3079 0.870669 2.42677 13.3079 0.870669 -0.110324 -1.04673 0.140976
290 1 4.28311 12.4203 0.0927769 4.28311 12.4203 0.0927769 0.0251527 0.00432077 1.73722
292 1 3.09062 12.3405 0.883241 3.09062 12.3405 0.883241 0.28539 0.0512043 1.47632
329 1 3.11751 13.1182 0.0798049 3.11751 13.1182 0.0798049 1.61762 -0.610614 -1.5427
331 1 4.16166 13.2504 0.907799 4.16166 13.2504 0.907799 0.886763 -1.50224 -1.20858
294 1 6.03045 12.5553 0.00870997 6.03045 12.5553 0.00870997 -1.76801 0.0122951 0.853269
296 1 5.11715 12.5187 0.915602 5.11715 12.5187 0.915602 0.44653 -1.21385 0.329045
333 1 5.01387 13.3869 0.129077 5.01387 13.3869 0.129077 -0.347323 -1.12429 0.413007
335 1 5.96203 13.361 1.09201 5.96203 13.361 1.09201 -0.173039 0.0825067 0.0772597
298 1 7.58222 12.5247 0.153554 7.58222 12.5247 0.153554 -0.116463 -0.622688 1.23306
300 1 6.62508 12.4994 0.901744 6.62508 12.4994 0.901744 -0.312168 0.0827113 -0.194241
337 1 6.62783 13.457 0.0387802 6.62783 13.457 0.0387802 0.930604 -0.909884 0.598477
339 1 7.69207 13.5008 0.685954 7.69207 13.5008 0.685954 0.108843 1.68152 0.324469
304 1 8.38715 12.6753 0.923788 8.38715 12.6753 0.923788 0.963728 -0.637591 0.490736
341 1 8.47413 13.3915 16.6821 8.47413 13.3915 -0.0755634 -0.560452 0.164323 -0.116293
302 1 9.26555 12.6835 0.090047 9.26555 12.6835 0.090047 0.980826 0.482101 -0.0362269
308 1 10.3458 12.5139 0.755196 10.3458 12.5139 0.755196 -0.0361556 -0.623059 1.58241
343 1 9.48574 13.4948 0.770745 9.48574 13.4948 0.770745 0.323219 0.486235 0.326556
345 1 10.228 13.3958 0.0314924 10.228 13.3958 0.0314924 0.0894354 0.61471 -0.617532
306 1 11.1608 12.5641 16.7543 11.1608 12.5641 -0.00336385 0.0137339 -1.08317 0.712449
312 1 11.7621 12.5632 0.971534 11.7621 12.5632 0.971534 -0.0435421 0.0205422 0.496466
347 1 10.9763 13.388 0.802558 10.9763 13.388 0.802558 0.710849 -0.418519 0.831336
349 1 11.8859 13.4783 16.6371 11.8859 13.4783 -0.120594 0.405684 -0.0920026 0.899419
310 1 12.7407 12.7323 16.665 12.7407 12.7323 -0.0926507 0.0639214 0.420442 0.211074
316 1 13.4061 12.5931 0.723922 13.4061 12.5931 0.723922 1.28439 -1.38544 1.04407
351 1 12.7443 13.4837 0.746677 12.7443 13.4837 0.746677 0.283832 0.13309 0.262372
353 1 13.5599 13.5267 16.6998 13.5599 13.5267 -0.0579056 1.75066 -0.122035 -0.477669
314 1 14.2272 12.5591 16.7045 14.2272 12.5591 -0.0531877 0.218777 0.907544 -0.678893
320 1 14.9463 12.5722 0.821178 14.9463 12.5722 0.821178 -0.292924 -0.48551 0.695658
355 1 14.2307 13.4482 0.715294 14.2307 13.4482 0.715294 0.912752 -0.917229 0.597857
357 1 15.1946 13.2857 0.157032 15.1946 13.2857 0.157032 -0.482683 -0.231433 -0.071908
318 1 15.8489 12.5437 16.6299 15.8489 12.5437 -0.127794 0.460646 0.0239366 1.11593
359 1 16.0407 13.4856 0.724308 16.0407 13.4856 0.724308 -1.50523 0.960358 0.719516
322 1 0.779353 14.2699 16.6709 0.779353 14.2699 -0.0868112 -0.0457098 0.901816 -0.651029
324 1 0.0499911 14.2934 0.701727 0.0499911 14.2934 0.701727 -0.222297 0.97181 -1.29872
361 1 0.0311931 15.2217 16.6846 0.0311931 15.2217 -0.073052 1.26366 -0.821218 -2.16837
363 1 0.809979 15.0594 0.852619 0.809979 15.0594 0.852619 0.516343 -1.10468 -0.816555
326 1 2.43437 14.1172 16.743 2.43437 14.1172 -0.0147203 -0.0299143 -0.109716 0.947139
328 1 1.7059 14.1605 0.813935 1.7059 14.1605 0.813935 -0.69443 0.119515 -0.853231
365 1 1.70929 15.1802 16.6529 1.70929 15.1802 -0.104771 0.45846 -0.00953747 0.246467
367 1 2.48891 14.8493 0.746382 2.48891 14.8493 0.746382 -0.533044 0.496971 0.00294173
330 1 4.04607 14.1307 0.254369 4.04607 14.1307 0.254369 0.0491184 -0.0861674 -0.526803
332 1 3.20728 14.0901 0.839323 3.20728 14.0901 0.839323 -0.124475 -0.621317 0.59516
369 1 3.30079 14.8659 16.7032 3.30079 14.8659 -0.0545099 0.437314 0.453602 1.07283
371 1 4.27539 14.9893 1.18356 4.27539 14.9893 1.18356 -0.106319 -0.536326 1.12205
334 1 5.86118 14.2772 0.105577 5.86118 14.2772 0.105577 -1.07584 1.17822 -0.798698