ITEM: TIMESTEP
0
ITEM: NUMBER OF ATOMS
4000
ITEM: BOX BOUNDS pp pp pp
0.0000000000000000e+00 1.6757672110741936e+01
0.0000000000000000e+00 1.6757672110741936e+01
0.0000000000000000e+00 1.6757672110741936e+01
ITEM: ATOMS id type x y z xu yu zu vx vy vz
1 1 0 0 0 0 0 0 -0.121369 -0.559757 -1.66984
2 1 0.837884 0.837884 0 0.837884 0.837884 0 -1.13932 1.7118 0.192092
3 1 0.837884 0 0.837884 0.837884 0 0.837884 0.492746 -0.457517 -0.663851
4 1 0 0.837884 0.837884 0 0.837884 0.837884 -0.863097 1.22828 -0.0346612
5 1 1.67577 0 0 1.67577 0 0 -1.34793 -0.397667 1.15571
6 1 2.51365 0.837884 0 2.51365 0.837884 0 1.45093 0.230312 -1.18604
7 1 2.51365 0 0.837884 2.51365 0 0.837884 -0.831541 -1.60945 0.31716
8 1 1.67577 0.837884 0.837884 1.67577 0.837884 0.837884 0.698729 -0.875603 1.19811
9 1 3.35153 0 0 3.35153 0 0 0.383225 0.799625 0.728905
10 1 4.18942 0.837884 0 4.18942 0.837884 0 1.60014 1.3172 -1.32907
11 1 4.18942 0 0.837884 4.18942 0 0.837884 -0.504868 0.920683 -0.529713
12 1 3.35153 0.837884 0.837884 3.35153 0.837884 0.837884 1.09344 -0.835073 0.29962
13 1 5.0273 0 0 5.0273 0 0 1.46602 1.11919 1.55699
14 1 5.86519 0.837884 0 5.86519 0.837884 0 1.59766 1.06142 0.118514
15 1 5.86519 0 0.837884 5.86519 0 0.837884 0.586299 -0.0362713 -1.33371
16 1 5.0273 0.837884 0.837884 5.0273 0.837884 0.837884 -1.19974 0.782353 1.27173
17 1 6.70307 0 0 6.70307 0 0 -0.408489 0.367238 1.11896
18 1 7.54095 0.837884 0 7.54095 0.837884 0 -0.217605 -1.06863 1.18914
19 1 7.54095 0 0.837884 7.54095 0 0.837884 -0.385949 -1.66761 -0.644851
20 1 6.70307 0.837884 0.837884 6.70307 0.837884 0.837884 -1.67623 0.846285 -1.02628
21 1 8.37884 0 0 8.37884 0 0 1.38727 0.2369 -1.24783
24 1 8.37884 0.837884 0.837884 8.37884 0.837884 0.837884 1.17289 1.48017 -1.10861
22 1 9.21672 0.837884 0 9.21672 0.837884 0 -0.488236 -0.00944054 -0.498175
23 1 9.21672 0 0.837884 9.21672 0 0.837884 1.09462 1.71134 -0.538103
25 1 10.0546 0 0 10.0546 0 0 1.50436 1.41135 -1.24848
28 1 10.0546 0.837884 0.837884 10.0546 0.837884 0.837884 1.61465 -0.629154 -1.19799
26 1 10.8925 0.837884 0 10.8925 0.837884 0 -1.3047 -0.880264 -0.969209
27 1 10.8925 0 0.837884 10.8925 0 0.837884 -0.152179 0.982252 -0.981771
29 1 11.7304 0 0 11.7304 0 0 1.082 0.694069 -0.612724
32 1 11.7304 0.837884 0.837884 11.7304 0.837884 0.837884 1.48808 1.37784 -0.101688
30 1 12.5683 0.837884 0 12.5683 0.837884 0 -1.0276 -0.520322 -0.198975
31 1 12.5683 0 0.837884 12.5683 0 0.837884 0.468132 1.33986 -1.3471
33 1 13.4061 0 0 13.4061 0 0 -1.12528 -1.21246 0.699506
36 1 13.4061 0.837884 0.837884 13.4061 0.837884 0.837884 0.918764 -0.560894 -0.00752274
34 1 14.244 0.837884 0 14.244 0.837884 0 1.60907 -1.00569 -0.422328
35 1 14.244 0 0.837884 14.244 0 0.837884 1.4313 -0.73521 -0.559187
37 1 15.0819 0 0 15.0819 0 0 -0.905237 -0.695624 -0.0201407
40 1 15.0819 0.837884 0.837884 15.0819 0.837884 0.837884 -1.51909 0.087661 0.709155
38 1 15.9198 0.837884 0 15.9198 0.837884 0 -1.59739 -0.181173 0.811319
39 1 15.9198 0 0.837884 15.9198 0 0.837884 -0.877086 1.56135 -0.750202
41 1 0 1.67577 0 0 1.67577 0 -0.712936 0.907769 0.552591
42 1 0.837884 2.51365 0 0.837884 2.51365 0 -0.226618 -0.195855 -0.109519
43 1 0.837884 1.67577 0.837884 0.837884 1.67577 0.837884 1.46876 -1.37577 1.57468
44 1 0 2.51365 0.837884 0 2.51365 0.837884 -1.47374 0.688823 1.22747
45 1 1.67577 1.67577 0 1.67577 1.67577 0 -0.653661 -0.011893 -0.167473
46 1 2.51365 2.51365 0 2.51365 2.51365 0 0.868295 -0.510104 -1.57707
47 1 2.51365 1.67577 0.837884 2.51365 1.67577 0.837884 1.68155 -1.62922 0.489589
48 1 1.67577 2.51365 0.837884 1.67577 2.51365 0.837884 -0.9078 1.2415 0.450016
49 1 3.35153 1.67577 0 3.35153 1.67577 0 -0.910154 -0.231464 0.386051
50 1 4.18942 2.51365 0 4.18942 2.51365 0 1.57187 0.505922 -1.65596
51 1 4.18942 1.67577 0.837884 4.18942 1.67577 0.837884 -1.11624 -1.54463 -0.84488
52 1 3.35153 2.51365 0.837884 3.35153 2.51365 0.837884 -1.46584 -1.63215 -0.224971
53 1 5.0273 1.67577 0 5.0273 1.67577 0 -0.882098 0.422028 0.981817
54 1 5.86519 2.51365 0 5.86519 2.51365 0 -1.02754 0.362796 -0.834267
55 1 5.86519 1.67577 0.837884 5.86519 1.67577 0.837884 0.0274558 0.907811 1.25908
56 1 5.0273 2.51365 0.837884 5.0273 2.51365 0.837884 -0.158201 0.170616 -0.406489
57 1 6.70307 1.67577 0 6.70307 1.67577 0 -0.355159 -0.0767788 -0.0554462
58 1 7.54095 2.51365 0 7.54095 2.51365 0 1.08599 -1.40204 -0.23818
59 1 7.54095 1.67577 0.837884 7.54095 1.67577 0.837884 1.04676 0.4733 0.5731
60 1 6.70307 2.51365 0.837884 6.70307 2.51365 0.837884 -1.24242 0.20384 0.546103
61 1 8.37884 1.67577 0 8.37884 1.67577 0 0.242473 -0.0197517 -0.679935
64 1 8.37884 2.51365 0.837884 8.37884 2.51365 0.837884 -1.04774 0.276341 0.320367
62 1 9.21672 2.51365 0 9.21672 2.51365 0 1.056 0.0387429 -0.874198
63 1 9.21672 1.67577 0.837884 9.21672 1.67577 0.837884 -1.24901 0.228211 1.60227
65 1 10.0546 1.67577 0 10.0546 1.67577 0 -0.416935 0.363144 1.55884
68 1 10.0546 2.51365 0.837884 10.0546 2.51365 0.837884 -1.48074 0.66665 -0.962437
66 1 10.8925 2.51365 0 10.8925 2.51365 0 0.758038 -1.23537 -0.0974752
67 1 10.8925 1.67577 0.837884 10.8925 1.67577 0.837884 1.38066 -0.198388 -1.14555
69 1 11.7304 1.67577 0 11.7304 1.67577 0 -1.70998 1.48047 0.59207
72 1 11.7304 2.51365 0.837884 11.7304 2.51365 0.837884 1.51608 1.12076 0.271465
70 1 12.5683 2.51365 0 12.5683 2.51365 0 0.479572 -0.293635 1.11631
71 1 12.5683 1.67577 0.837884 12.5683 1.67577 0.837884 1.02971 1.37433 -0.245066
73 1 13.4061 1.67577 0 13.4061 1.67577 0 -0.813994 -0.998029 0.225602
76 1 13.4061 2.51365 0.837884 13.4061 2.51365 0.837884 -0.137398 0.108723 1.53964
74 1 14.244 2.51365 0 14.244 2.51365 0 -0.0385679 -0.793471 0.0908561
75 1 14.244 1.67577 0.837884 14.244 1.67577 0.837884 1.47806 -0.885909 1.09721
77 1 15.0819 1.67577 0 15.0819 1.67577 0 0.643981 -0.0311836 1.07824
80 1 15.0819 2.51365 0.837884 15.0819 2.51365 0.837884 -0.986425 -1.05309 -0.653531
78 1 15.9198 2.51365 0 15.9198 2.51365 0 -1.69037 -1.2627 1.07839
79 1 15.9198 1.67577 0.837884 15.9198 1.67577 0.837884 1.54915 -0.483106 -1.39246
81 1 0 3.35153 0 0 3.35153 0 0.938778 -0.0496227 -0.677078
82 1 0.837884 4.18942 0 0.837884 4.18942 0 0.534785 -0.229609 0.40506
83 1 0.837884 3.35153 0.837884 0.837884 3.35153 0.837884 -1.35299 1.18046 -0.483912
84 1 0 4.18942 0.837884 0 4.18942 0.837884 0.862376 0.404688 0.397078
85 1 1.67577 3.35153 0 1.67577 3.35153 0 -0.975148 1.51673 0.632454
86 1 2.51365 4.18942 0 2.51365 4.18942 0 1.21781 1.67701 0.687509
87 1 2.51365 3.35153 0.837884 2.51365 3.35153 0.837884 -0.381177 -1.09321 0.124309
88 1 1.67577 4.18942 0.837884 1.67577 4.18942 0.837884 -0.789484 -1.09331 -1.49652
89 1 3.35153 3.35153 0 3.35153 3.35153 0 1.2396 0.821969 -1.14207
90 1 4.18942 4.18942 0 4.18942 4.18942 0 -1.40147 -0.0727676 1.57559
91 1 4.18942 3.35153 0.837884 4.18942 3.35153 0.837884 -1.1279 -0.143549 -0.460188
92 1 3.35153 4.18942 0.837884 3.35153 4.18942 0.837884 -0.248805 0.83143 -1.40101
93 1 5.0273 3.35153 0 5.0273 3.35153 0 1.46284 -0.465798 -1.34602
94 1 5.86519 4.18942 0 5.86519 4.18942 0 -1.66541 -0.688751 1.24106
95 1 5.86519 3.35153 0.837884 5.86519 3.35153 0.837884 -1.22126 -0.858432 -1.05641
96 1 5.0273 4.18942 0.837884 5.0273 4.18942 0.837884 -1.67322 -0.464045 0.429286
97 1 6.70307 3.35153 0 6.70307 3.35153 0 -1.0742 -1.33943 -0.567698
98 1 7.54095 4.18942 0 7.54095 4.18942 0 -0.640594 1.48029 0.900447
99 1 7.54095 3.35153 0.837884 7.54095 3.35153 0.837884 -0.427227 0.509728 -0.0152439
100 1 6.70307 4.18942 0.837884 6.70307 4.18942 0.837884 0.401095 -0.0809096 -0.234932
101 1 8.37884 3.35153 0 8.37884 3.35153 0 -0.395849 1.61004 0.463053
104 1 8.37884 4.18942 0.837884 8.37884 4.18942 0.837884 0.186638 -0.127202 0.763649
102 1 9.21672 4.18942 0 9.21672 4.18942 0 -0.23042 1.67344 -0.461496
103 1 9.21672 3.35153 0.837884 9.21672 3.35153 0.837884 -1.24692 0.729015 1.57105
105 1 10.0546 3.35153 0 10.0546 3.35153 0 0.442319 0.291719 -0.895231
108 1 10.0546 4.18942 0.837884 10.0546 4.18942 0.837884 1.21146 -1.19167 0.312792
106 1 10.8925 4.18942 0 10.8925 4.18942 0 -0.786558 -0.390942 -0.0706934
107 1 10.8925 3.35153 0.837884 10.8925 3.35153 0.837884 -1.18521 -0.858501 1.25401
109 1 11.7304 3.35153 0 11.7304 3.35153 0 0.547291 -1.26015 -1.05134
112 1 11.7304 4.18942 0.837884 11.7304 4.18942 0.837884 -1.65119 -0.745918 -0.482425
110 1 12.5683 4.18942 0 12.5683 4.18942 0 -0.478908 0.960347 1.32948
111 1 12.5683 3.35153 0.837884 12.5683 3.35153 0.837884 1.33101 -0.20612 0.474207
113 1 13.4061 3.35153 0 13.4061 3.35153 0 1.4576 1.57284 -1.68598
116 1 13.4061 4.18942 0.837884 13.4061 4.18942 0.837884 -0.859234 0.365049 -1.05565
114 1 14.244 4.18942 0 14.244 4.18942 0 -0.816971 0.891489 0.462039
115 1 14.244 3.35153 0.837884 14.244 3.35153 0.837884 1.21543 -0.344355 0.40972
117 1 15.0819 3.35153 0 15.0819 3.35153 0 -0.95714 -0.517496 -1.17456
120 1 15.0819 4.18942 0.837884 15.0819 4.18942 0.837884 0.932688 1.47501 -1.19543
118 1 15.9198 4.18942 0 15.9198 4.18942 0 0.745656 -1.60563 -1.19152
119 1 15.9198 3.35153 0.837884 15.9198 3.35153 0.837884 -1.58906 1.33737 -1.68488
121 1 0 5.0273 0 0 5.0273 0 -1.29588 -1.53 -0.675572
122 1 0.837884 5.86519 0 0.837884 5.86519 0 1.60806 -0.64196 1.69377
123 1 0.837884 5.0273 0.837884 0.837884 5.0273 0.837884 -1.16343 1.63326 -0.605578
124 1 0 5.86519 0.837884 0 5.86519 0.837884 -1.26655 -0.269214 -0.454662
125 1 1.67577 5.0273 0 1.67577 5.0273 0 -0.70306 0.700603 -1.59227
126 1 2.51365 5.86519 0 2.51365 5.86519 0 1.14633 1.69689 -1.07874
127 1 2.51365 5.0273 0.837884 2.51365 5.0273 0.837884 0.161404 1.62938 -0.0211268
128 1 1.67577 5.86519 0.837884 1.67577 5.86519 0.837884 -0.627075 0.169669 0.988204
129 1 3.35153 5.0273 0 3.35153 5.0273 0 1.54586 -0.352231 -0.395182
130 1 4.18942 5.86519 0 4.18942 5.86519 0 -1.45965 -1.46263 -0.598131
131 1 4.18942 5.0273 0.837884 4.18942 5.0273 0.837884 -1.69657 -1.71564 -1.15813
132 1 3.35153 5.86519 0.837884 3.35153 5.86519 0.837884 0.466502 1.64456 -1.15004
133 1 5.0273 5.0273 0 5.0273 5.0273 0 -1.11412 -0.621346 -1.549
134 1 5.86519 5.86519 0 5.86519 5.86519 0 1.46511 -0.291257 -0.467207
135 1 5.86519 5.0273 0.837884 5.86519 5.0273 0.837884 -0.248016 0.244581 -0.262317
136 1 5.0273 5.86519 0.837884 5.0273 5.86519 0.837884 0.366078 -0.0131465 -0.461159
137 1 6.70307 5.0273 0 6.70307 5.0273 0 -0.0338248 -0.711362 -1.38013
138 1 7.54095 5.86519 0 7.54095 5.86519 0 -1.37208 -1.22261 -0.363426
139 1 7.54095 5.0273 0.837884 7.54095 5.0273 0.837884 0.0760875 1.14072 -0.158262
140 1 6.70307 5.86519 0.837884 6.70307 5.86519 0.837884 1.50401 -0.915344 1.4975
141 1 8.37884 5.0273 0 8.37884 5.0273 0 -0.329264 -1.11824 -1.53098
144 1 8.37884 5.86519 0.837884 8.37884 5.86519 0.837884 1.34747 -0.588132 -0.750971
142 1 9.21672 5.86519 0 9.21672 5.86519 0 0.57014 -1.55678 -0.735081
143 1 9.21672 5.0273 0.837884 9.21672 5.0273 0.837884 0.453215 -0.0774869 -1.57001
145 1 10.0546 5.0273 0 10.0546 5.0273 0 0.290857 -0.478129 -0.845003
148 1 10.0546 5.86519 0.837884 10.0546 5.86519 0.837884 1.72846 0.914767 0.457268
146 1 10.8925 5.86519 0 10.8925 5.86519 0 -0.306491 0.769166 1.22572
147 1 10.8925 5.0273 0.837884 10.8925 5.0273 0.837884 -1.58451 1.60499 -1.32117
149 1 11.7304 5.0273 0 11.7304 5.0273 0 1.02738 0.326046 1.28441
152 1 11.7304 5.86519 0.837884 11.7304 5.86519 0.837884 -0.82617 -1.36913 -1.21422
150 1 12.5683 5.86519 0 12.5683 5.86519 0 0.37838 -0.995229 -1.18436
151 1 12.5683 5.0273 0.837884 12.5683 5.0273 0.837884 -0.0714273 0.917945 -1.53002
153 1 13.4061 5.0273 0 13.4061 5.0273 0 1.44596 -0.142526 -0.569334
156 1 13.4061 5.86519 0.837884 13.4061 5.86519 0.837884 -0.0741383 0.365562 0.643155
154 1 14.244 5.86519 0 14.244 5.86519 0 -0.966912 1.43916 -1.3056
155 1 14.244 5.0273 0.837884 14.244 5.0273 0.837884 1.4664 0.615842 0.314675
157 1 15.0819 5.0273 0 15.0819 5.0273 0 1.68206 0.128496 1.47905
160 1 15.0819 5.86519 0.837884 15.0819 5.86519 0.837884 0.907404 -1.06006 -0.0791191
158 1 15.9198 5.86519 0 15.9198 5.86519 0 0.493688 1.51546 -0.0490291
159 1 15.9198 5.0273 0.837884 15.9198 5.0273 0.837884 -0.868687 0.755901 -0.121674
161 1 0 6.70307 0 0 6.70307 0 -0.0507717 -1.62231 -1.12847
162 1 0.837884 7.54095 0 0.837884 7.54095 0 -0.592516 -0.677283 0.090174
163 1 0.837884 6.70307 0.837884 0.837884 6.70307 0.837884 -0.750453 0.512539 -1.23647
164 1 0 7.54095 0.837884 0 7.54095 0.837884 -0.226102 1.54555 0.236809
165 1 1.67577 6.70307 0 1.67577 6.70307 0 0.393964 1.24905 -0.711837
166 1 2.51365 7.54095 0 2.51365 7.54095 0 0.716609 -1.60084 -0.3091
167 1 2.51365 6.70307 0.837884 2.51365 6.70307 0.837884 0.241814 -0.703308 -1.04576
168 1 1.67577 7.54095 0.837884 1.67577 7.54095 0.837884 1.35768 1.42469 1.29745
169 1 3.35153 6.70307 0 3.35153 6.70307 0 1.52766 -1.71333 -0.503957
170 1 4.18942 7.54095 0 4.18942 7.54095 0 1.29711 1.38744 -1.41812
171 1 4.18942 6.70307 0.837884 4.18942 6.70307 0.837884 -1.04732 0.290531 -0.0902361
172 1 3.35153 7.54095 0.837884 3.35153 7.54095 0.837884 0.109919 -1.55228 -1.32209
173 1 5.0273 6.70307 0 5.0273 6.70307 0 -0.763192 1.0747 1.57554
174 1 5.86519 7.54095 0 5.86519 7.54095 0 0.382647 1.47508 -0.0414939
175 1 5.86519 6.70307 0.837884 5.86519 6.70307 0.837884 -0.518183 -1.28357 0.0372953
176 1 5.0273 7.54095 0.837884 5.0273 7.54095 0.837884 0.0600563 -1.69325 1.16634
177 1 6.70307 6.70307 0 6.70307 6.70307 0 -0.374721 0.0688999 0.467805
178 1 7.54095 7.54095 0 7.54095 7.54095 0 0.81009 1.07723 -0.925836
179 1 7.54095 6.70307 0.837884 7.54095 6.70307 0.837884 1.01664 -0.193615 -0.550071
180 1 6.70307 7.54095 0.837884 6.70307 7.54095 0.837884 -0.838237 0.104308 0.037057
181 1 8.37884 6.70307 0 8.37884 6.70307 0 -0.53647 -0.471852 0.787882
184 1 8.37884 7.54095 0.837884 8.37884 7.54095 0.837884 -0.935469 0.167165 0.455868
182 1 9.21672 7.54095 0 9.21672 7.54095 0 1.38373 -0.45426 -1.31747
183 1 9.21672 6.70307 0.837884 9.21672 6.70307 0.837884 -0.152529 -1.44256 0.731278
185 1 10.0546 6.70307 0 10.0546 6.70307 0 1.63323 -0.0194851 0.339859
188 1 10.0546 7.54095 0.837884 10.0546 7.54095 0.837884 -1.16792 -1.13786 1.09489
186 1 10.8925 7.54095 0 10.8925 7.54095 0 -1.33007 -1.41456 0.544521
187 1 10.8925 6.70307 0.837884 10.8925 6.70307 0.837884 -1.11861 0.180226 -1.61318
189 1 11.7304 6.70307 0 11.7304 6.70307 0 -0.348055 1.59755 1.64607
192 1 11.7304 7.54095 0.837884 11.7304 7.54095 0.837884 1.44847 0.501805 -1.60024
190 1 12.5683 7.54095 0 12.5683 7.54095 0 0.736277 0.0312879 -1.52598
191 1 12.5683 6.70307 0.837884 12.5683 6.70307 0.837884 1.26985 0.233735 0.947084
193 1 13.4061 6.70307 0 13.4061 6.70307 0 0.0134774 1.41363 -1.00275
196 1 13.4061 7.54095 0.837884 13.4061 7.54095 0.837884 -1.00498 -1.32945 0.975981
194 1 14.244 7.54095 0 14.244 7.54095 0 -0.344939 -1.42672 0.375727
195 1 14.244 6.70307 0.837884 14.244 6.70307 0.837884 -0.546557 -0.352235 -0.447915
197 1 15.0819 6.70307 0 15.0819 6.70307 0 1.31359 1.40897 0.336904
200 1 15.0819 7.54095 0.837884 15.0819 7.54095 0.837884 0.589 0.34564 1.67204
198 1 15.9198 7.54095 0 15.9198 7.54095 0 -0.936908 0.209442 1.22722
199 1 15.9198 6.70307 0.837884 15.9198 6.70307 0.837884 1.71826 -0.871107 0.5866
201 1 0 8.37884 0 0 8.37884 0 -0.164246 -1.01185 -0.158854
203 1 0.837884 8.37884 0.837884 0.837884 8.37884 0.837884 -0.111146 1.59801 -1.02151
205 1 1.67577 8.37884 0 1.67577 8.37884 0 -1.06373 1.54268 0.476797
207 1 2.51365 8.37884 0.837884 2.51365 8.37884 0.837884 -0.103046 -0.756596 0.0861626
209 1 3.35153 8.37884 0 3.35153 8.37884 0 0.143903 -1.67319 -0.978708
211 1 4.18942 8.37884 0.837884 4.18942 8.37884 0.837884 1.69435 -1.04896 -0.585662
213 1 5.0273 8.37884 0 5.0273 8.37884 0 0.0244315 -1.44863 -0.852728
215 1 5.86519 8.37884 0.837884 5.86519 8.37884 0.837884 -1.16302 1.66086 -0.631148
217 1 6.70307 8.37884 0 6.70307 8.37884 0 1.17739 0.851694 -0.132472
219 1 7.54095 8.37884 0.837884 7.54095 8.37884 0.837884 0.722906 0.370958 1.31999
221 1 8.37884 8.37884 0 8.37884 8.37884 0 -0.0880852 1.4019 -0.764114
223 1 9.21672 8.37884 0.837884 9.21672 8.37884 0.837884 -0.615203 -1.11606 0.375579
225 1 10.0546 8.37884 0 10.0546 8.37884 0 0.436814 1.25639 1.4829
227 1 10.8925 8.37884 0.837884 10.8925 8.37884 0.837884 1.69263 1.17294 1.17725
229 1 11.7304 8.37884 0 11.7304 8.37884 0 -0.714837 0.131837 -1.23517
231 1 12.5683 8.37884 0.837884 12.5683 8.37884 0.837884 1.69349 -1.70265 -1.03168
233 1 13.4061 8.37884 0 13.4061 8.37884 0 1.5623 -1.11315 0.827914
235 1 14.244 8.37884 0.837884 14.244 8.37884 0.837884 0.0150342 -0.119681 -0.934307
237 1 15.0819 8.37884 0 15.0819 8.37884 0 -1.43778 -0.910694 0.0133837
239 1 15.9198 8.37884 0.837884 15.9198 8.37884 0.837884 1.30553 0.973256 0.159519
202 1 0.837884 9.21672 0 0.837884 9.21672 0 -1.09186 -0.353192 0.76563
204 1 0 9.21672 0.837884 0 9.21672 0.837884 0.886154 -1.58198 1.65437
241 1 0 10.0546 0 0 10.0546 0 -1.30996 0.742554 0.604275
243 1 0.837884 10.0546 0.837884 0.837884 10.0546 0.837884 -0.236187 1.70015 -1.63854
206 1 2.51365 9.21672 0 2.51365 9.21672 0 -0.140701 -0.00111238 0.978256
208 1 1.67577 9.21672 0.837884 1.67577 9.21672 0.837884 1.52375 -1.62474 -0.420402
245 1 1.67577 10.0546 0 1.67577 10.0546 0 -1.54288 -1.54746 0.0168949
247 1 2.51365 10.0546 0.837884 2.51365 10.0546 0.837884 0.381672 -1.06551 1.69101
210 1 4.18942 9.21672 0 4.18942 9.21672 0 -1.423 1.60721 1.26781
212 1 3.35153 9.21672 0.837884 3.35153 9.21672 0.837884 -0.280378 -0.0740758 0.362072
249 1 3.35153 10.0546 0 3.35153 10.0546 0 0.21638 1.16416 -0.878989
251 1 4.18942 10.0546 0.837884 4.18942 10.0546 0.837884 0.452141 -0.829781 -0.782786
214 1 5.86519 9.21672 0 5.86519 9.21672 0 1.27649 0.9684 1.63936
216 1 5.0273 9.21672 0.837884 5.0273 9.21672 0.837884 -1.37264 -0.158874 1.65327
253 1 5.0273 10.0546 0 5.0273 10.0546 0 -1.49087 0.0759787 1.71943
255 1 5.86519 10.0546 0.837884 5.86519 10.0546 0.837884 0.406629 -0.555136 -0.180995
218 1 7.54095 9.21672 0 7.54095 9.21672 0 -0.514435 -0.609998 -1.24415
220 1 6.70307 9.21672 0.837884 6.70307 9.21672 0.837884 -0.323 0.293314 1.67776
257 1 6.70307 10.0546 0 6.70307 10.0546 0 1.67751 -0.300389 -1.59007
259 1 7.54095 10.0546 0.837884 7.54095 10.0546 0.837884 -1.34558 0.980153 -1.65123
224 1 8.37884 9.21672 0.837884 8.37884 9.21672 0.837884 -0.186939 -1.55393 -1.33474
261 1 8.37884 10.0546 0 8.37884 10.0546 0 1.58562 -0.473808 -0.925119
222 1 9.21672 9.21672 0 9.21672 9.21672 0 0.446177 -0.64728 -1.15331
228 1 10.0546 9.21672 0.837884 10.0546 9.21672 0.837884 1.54858 0.264862 1.28262
263 1 9.21672 10.0546 0.837884 9.21672 10.0546 0.837884 1.51501 0.505098 -1.66437
265 1 10.0546 10.0546 0 10.0546 10.0546 0 -0.341539 0.324563 0.596129
226 1 10.8925 9.21672 0 10.8925 9.21672 0 -0.11144 0.128741 -1.32694
232 1 11.7304 9.21672 0.837884 11.7304 9.21672 0.837884 0.958545 -0.212188 -1.09728
267 1 10.8925 10.0546 0.837884 10.8925 10.0546 0.837884 1.32467 0.568125 1.61006
269 1 11.7304 10.0546 0 11.7304 10.0546 0 0.0657571 0.635955 -0.949209
230 1 12.5683 9.21672 0 12.5683 9.21672 0 0.366284 -0.0103058 -1.19078
236 1 13.4061 9.21672 0.837884 13.4061 9.21672 0.837884 1.23427 1.26825 0.0585625
271 1 12.5683 10.0546 0.837884 12.5683 10.0546 0.837884 -1.08043 1.29172 -0.268108
273 1 13.4061 10.0546 0 13.4061 10.0546 0 -0.0702885 -0.715403 -0.0528153
234 1 14.244 9.21672 0 14.244 9.21672 0 -1.17541 1.20625 0.0851668
240 1 15.0819 9.21672 0.837884 15.0819 9.21672 0.837884 1.09368 -0.351869 -1.22506
275 1 14.244 10.0546 0.837884 14.244 10.0546 0.837884 0.338577 -1.71959 1.60765
277 1 15.0819 10.0546 0 15.0819 10.0546 0 -1.43516 1.55003 -0.63847
238 1 15.9198 9.21672 0 15.9198 9.21672 0 1.24051 -1.16121 -0.117223
279 1 15.9198 10.0546 0.837884 15.9198 10.0546 0.837884 -1.44917 1.55655 1.54786
242 1 0.837884 10.8925 0 0.837884 10.8925 0 1.00415 1.03308 1.60589
244 1 0 10.8925 0.837884 0 10.8925 0.837884 -0.297372 1.69454 1.08592
281 1 0 11.7304 0 0 11.7304 0 -0.647049 0.314489 0.940793
283 1 0.837884 11.7304 0.837884 0.837884 11.7304 0.837884 -1.45163 1.71843 0.890067
246 1 2.51365 10.8925 0 2.51365 10.8925 0 1.71794 0.616735 1.48054
248 1 1.67577 10.8925 0.837884 1.67577 10.8925 0.837884 -0.220468 -0.709604 0.468337
285 1 1.67577 11.7304 0 1.67577 11.7304 0 -1.55302 1.16192 -0.456674
287 1 2.51365 11.7304 0.837884 2.51365 11.7304 0.837884 1.20446 -1.15772 -0.441065
250 1 4.18942 10.8925 0 4.18942 10.8925 0 -1.13137 0.417318 1.45052
252 1 3.35153 10.8925 0.837884 3.35153 10.8925 0.837884 -0.331027 0.414864 -1.70366
289 1 3.35153 11.7304 0 3.35153 11.7304 0 -0.961331 -1.69386 1.35588
291 1 4.18942 11.7304 0.837884 4.18942 11.7304 0.837884 0.113528 0.245688 1.03602
254 1 5.86519 10.8925 0 5.86519 10.8925 0 -0.86277 -0.196855 0.381706
256 1 5.0273 10.8925 0.837884 5.0273 10.8925 0.837884 -0.147861 0.846207 1.12616
293 1 5.0273 11.7304 0 5.0273 11.7304 0 1.19239 0.199089 0.330184
295 1 5.86519 11.7304 0.837884 5.86519 11.7304 0.837884 1.17219 0.0736132 0.0499594
258 1 7.54095 10.8925 0 7.54095 10.8925 0 0.391293 1.36127 -1.66936
260 1 6.70307 10.8925 0.837884 6.70307 10.8925 0.837884 -0.0564264 0.285067 1.56234
297 1 6.70307 11.7304 0 6.70307 11.7304 0 -1.42456 -0.353775 1.36724
299 1 7.54095 11.7304 0.837884 7.54095 11.7304 0.837884 -1.65354 1.41581 1.00751
264 1 8.37884 10.8925 0.837884 8.37884 10.8925 0.837884 -0.453761 1.20129 -0.20467
301 1 8.37884 11.7304 0 8.37884 11.7304 0 0.955868 -0.18354 -0.88639
262 1 9.21672 10.8925 0 9.21672 10.8925 0 -1.01462 -0.537628 -0.213007
268 1 10.0546 10.8925 0.837884 10.0546 10.8925 0.837884 1.66059 -0.749919 1.51963
303 1 9.21672 11.7304 0.837884 9.21672 11.7304 0.837884 -0.512904 0.878426 -0.954022
305 1 10.0546 11.7304 0 10.0546 11.7304 0 -1.32149 0.755898 -0.17232
266 1 10.8925 10.8925 0 10.8925 10.8925 0 0.636963 -0.273716 0.0472088
272 1 11.7304 10.8925 0.837884 11.7304 10.8925 0.837884 -1.33142 0.143165 -1.27813
307 1 10.8925 11.7304 0.837884 10.8925 11.7304 0.837884 -1.17564 0.723043 1.60985
309 1 11.7304 11.7304 0 11.7304 11.7304 0 0.797709 0.735552 0.654345
270 1 12.5683 10.8925 0 12.5683 10.8925 0 0.0285376 -1.68485 0.309946
276 1 13.4061 10.8925 0.837884 13.4061 10.8925 0.837884 -0.702838 0.969057 -1.16753
311 1 12.5683 11.7304 0.837884 12.5683 11.7304 0.837884 -1.06066 1.1879 -0.086118
313 1 13.4061 11.7304 0 13.4061 11.7304 0 -0.230908 0.401965 -0.363525
274 1 14.244 10.8925 0 14.244 10.8925 0 0.896072 -1.09219 0.0354863
280 1 15.0819 10.8925 0.837884 15.0819 10.8925 0.837884 -0.206115 1.61022 0.00252127
315 1 14.244 11.7304 0.837884 14.244 11.7304 0.837884 1.4686 -0.610629 -1.46119
317 1 15.0819 11.7304 0 15.0819 11.7304 0 0.83705 0.619432 -1.66395
278 1 15.9198 10.8925 0 15.9198 10.8925 0 0.29388 -1.60598 -0.166858
319 1 15.9198 11.7304 0.837884 15.9198 11.7304 0.837884 0.126359 1.2316 0.378643
282 1 0.837884 12.5683 0 0.837884 12.5683 0 0.516418 -0.777337 1.19804
284 1 0 12.5683 0.837884 0 12.5683 0.837884 -0.174375 -1.59586 0.301196
321 1 0 13.4061 0 0 13.4061 0 -1.72326 -0.119333 1.44265
323 1 0.837884 13.4061 0.837884 0.837884 13.4061 0.837884 1.59705 1.25362 -0.114918
286 1 2.51365 12.5683 0 2.51365 12.5683 0 -0.0298701 -0.0293424 0.861712
288 1 1.67577 12.5683 0.837884 1.67577 12.5683 0.837884 0.954995 -1.01182 0.40581
325 1 1.67577 13.4061 0 1.67577 13.4061 0 -1.02475 -1.22563 0.793991
327 1 2.51365 13.4061 0.837884 2.51365 13.4061 0.837884 -1.58474 1.32803 0.667832
290 1 4.18942 12.5683 0 4.18942 12.5683 0 -1.47214 -0.123335 -0.0365554
292 1 3.35153 12.5683 0.837884 3.35153 12.5683 0.837884 1.66754 -1.57184 -1.14506
329 1 3.35153 13.4061 0 3.35153 13.4061 0 -0.603797 0.161429 1.00077
331 1 4.18942 13.4061 0.837884 4.18942 13.4061 0.837884 -1.69749 0.278677 1.49417
294 1 5.86519 12.5683 0 5.86519 12.5683 0 -0.819545 -0.808709 0.212159
296 1 5.0273 12.5683 0.837884 5.0273 12.5683 0.837884 -0.515716 -1.3596 -0.303073
333 1 5.0273 13.4061 0 5.0273 13.4061 0 -0.416086 0.788318 1.11099
335 1 5.86519 13.4061 0.837884 5.86519 13.4061 0.837884 -1.3024 -0.370658 1.51874
298 1 7.54095 12.5683 0 7.54095 12.5683 0 0.270984 1.3583 0.416234
300 1 6.70307 12.5683 0.837884 6.70307 12.5683 0.837884 0.0443718 1.30052 -1.27843
337 1 6.70307 13.4061 0 6.70307 13.4061 0 -0.457206 -1.30386 1.71722
339 1 7.54095 13.4061 0.837884 7.54095 13.4061 0.837884 1.45895 0.0667606 -0.863872
304 1 8.37884 12.5683 0.837884 8.37884 12.5683 0.837884 -0.919121 1.40631 0.62225
341 1 8.37884 13.4061 0 8.37884 13.4061 0 1.51297 0.683013 0.537689
302 1 9.21672 12.5683 0 9.21672 12.5683 0 1.43057 0.853228 1.4173
308 1 10.0546 12.5683 0.837884 10.0546 12.5683 0.837884 -0.00436338 -0.672236 -1.64499
343 1 9.21672 13.4061 0.837884 9.21672 13.4061 0.837884 -0.609745 0.596211 -0.696507
345 1 10.0546 13.4061 0 10.0546 13.4061 0 -0.211253 -1.64601 -1.25538
306 1 10.8925 12.5683 0 10.8925 12.5683 0 0.391235 0.398264 -0.249497
312 1 11.7304 12.5683 0.837884 11.7304 12.5683 0.837884 0.950188 1.29215 -0.0254563
347 1 10.8925 13.4061 0.837884 10.8925 13.4061 0.837884 -0.389724 0.672052 -0.190349
349 1 11.7304 13.4061 0 11.7304 13.4061 0 1.55721 -0.169979 -1.48152
310 1 12.5683 12.5683 0 12.5683 12.5683 0 -1.04122 -1.00374 1.13006
316 1 13.4061 12.5683 0.837884 13.4061 12.5683 0.837884 -0.279146 -0.142525 -0.559226
351 1 12.5683 13.4061 0.837884 12.5683 13.4061 0.837884 1.33847 0.492297 1.32296
353 1 13.4061 13.4061 0 13.4061 13.4061 0 0.678082 -1.65952 0.25199
314 1 14.244 12.5683 0 14.244 12.5683 0 0.0278711 0.962512 -0.366835
320 1 15.0819 12.5683 0.837884 15.0819 12.5683 0.837884 -1.40426 1.55276 0.207816
355 1 14.244 13.4061 0.837884 14.244 13.4061 0.837884 0.377349 -1.01829 -1.04316
357 1 15.0819 13.4061 0 15.0819 13.4061 0 -1.43963 -0.786762 -1.40436
318 1 15.9198 12.5683 0 15.9198 12.5683 0 1.44638 -0.00056953 -0.285139
359 1 15.9198 13.4061 0.837884 15.9198 13.4061 0.837884 -0.615174 -0.6357 -0.419484
322 1 0.837884 14.244 0 0.837884 14.244 0 -0.91021 -1.18666 1.40042
324 1 0 14.244 0.837884 0 14.244 0.837884 -0.640606 1.27711 -0.0355552
361 1 0 15.0819 0 0 15.0819 0 -1.33226 -0.0914568 -0.921249
363 1 0.837884 15.0819 0.837884 0.837884 15.0819 0.837884 1.45818 0.929302 -1.08346
326 1 2.51365 14.244 0 2.51365 14.244 0 -0.829246 -1.1266 -0.0610312
328 1 1.67577 14.244 0.837884 1.67577 14.244 0.837884 0.545986 1.04355 0.947671
365 1 1.67577 15.0819 0 1.67577 15.0819 0 1.50956 -1.07231 1.70525
367 1 2.51365 15.0819 0.837884 2.51365 15.0819 0.837884 1.12773 0.757683 -1.33911
330 1 4.18942 14.244 0 4.18942 14.244 0 -1.26331 -1.30329 1.02014
332 1 3.35153 14.244 0.837884 3.35153 14.244 0.837884 0.964572 0.687923 -0.0422052
369 1 3.35153 15.0819 0 3.35153 15.0819 0 -0.481613 0.516436 -1.53244
371 1 4.18942 15.0819 0.837884 4.18942 15.0819 0.837884 -0.564082 -0.589927 0.229388
334 1 5.86519 14.244 0 5.86519 14.244 0 0.940597 -0.636819 1.53692
336 1 5.0273 14.244 0.837884 5.0273 14.244 0.837884 0.5804 1.22551 -1.63996
373 1 5.0273 15.0819 0 5.0273 15.0819 0 -1.59979 1.02501 0.857359
375 1 5.86519 15.0819 0.837884 5.86519 15.0819 0.837884 1.11189 1.0728 0.91838
338 1 7.54095 14.244 0 7.54095 14.244 0 -1.18222 1.00671 1.5757
340 1 6.70307 14.244 0.837884 6.70307 14.244 0.837884 0.390857 0.958439 0.420638
377 1 6.70307 15.0819 0 6.70307 15.0819 0 -1.18527 1.60071 -0.577297
379 1 7.54095 15.0819 0.837884 7.54095 15.0819 0.837884 -1.5913 -1.64232 -1.46434
344 1 8.37884 14.244 0.837884 8.37884 14.244 0.837884 -0.535263 -0.956469 -0.678221
381 1 8.37884 15.0819 0 8.37884 15.0819 0 -0.824951 -1.66057 -0.142775
342 1 9.21672 14.244 0 9.21672 14.244 0 1.29354 0.276511 -0.282428
348 1 10.0546 14.244 0.837884 10.0546 14.244 0.837884 -1.47451 1.57583 0.241393
383 1 9.21672 15.0819 0.837884 9.21672 15.0819 0.837884 0.449577 1.08726 1.52416
385 1 10.0546 15.0819 0 10.0546 15.0819 0 1.62161 -1.39496 1.03575
346 1 10.8925 14.244 0 10.8925 14.244 0 -0.109224 -0.719172 -1.08459
352 1 11.7304 14.244 0.837884 11.7304 14.244 0.837884 -1.38013 -1.41201 -1.65398
387 1 10.8925 15.0819 0.837884 10.8925 15.0819 0.837884 -0.760634 -0.946427 -1.55075
389 1 11.7304 15.0819 0 11.7304 15.0819 0 -1.2267 1.24909 -0.0417078
350 1 12.5683 14.244 0 12.5683 14.244 0 0.356226 0.598698 -0.444525
356 1 13.4061 14.244 0.837884 13.4061 14.244 0.837884 -0.609289 1.32822 0.402512
391 1 12.5683 15.0819 0.837884 12.5683 15.0819 0.837884 0.00998551 1.58586 -0.875017
393 1 13.4061 15.0819 0 13.4061 15.0819 0 1.65823 1.23914 -1.00259
354 1 14.244 14.244 0 14.244 14.244 0 1.5532 -1.71496 -0.0961793
360 1 15.0819 14.244 0.837884 15.0819 14.244 0.837884 0.603407 0.126288 -1.00656
395 1 14.244 15.0819 0.837884 14.244 15.0819 0.837884 -1.23355 0.428718 -0.844185
397 1 15.0819 15.0819 0 15.0819 15.0819 0 -1.45172 0.188867 1.6449
358 1 15.9198 14.244 0 15.9198 14.244 0 0.672453 0.676224 0.690022
399 1 15.9198 15.0819 0.837884 15.9198 15.0819 0.837884 -0.56123 -1.14065 -0.775154
362 1 0.837884 15.9198 0 0.837884 15.9198 0 -1.13694 0.17749 0.869423
364 1 0 15.9198 0.837884 0 15.9198 0.837884 -0.424482 1.64138 0.869882
366 1 2.51365 15.9198 0 2.51365 15.9198 0 -1.05087 -0.370198 -1.13995
368 1 1.67577 15.9198 0.837884 1.67577 15.9198 0.837884 -0.222433 0.887912 -0.78628
370 1 4.18942 15.9198 0 4.18942 15.9198 0 0.719287 -1.60196 1.70421
372 1 3.35153 15.9198 0.837884 3.35153 15.9198 0.837884 -0.6158 -0.754103 0.433827
374 1 5.86519 15.9198 0 5.86519 15.9198 0 -0.187985 1.63459 0.945419
376 1 5.0273 15.9198 0.837884 5.0273 15.9198 0.837884 -1.01129 -0.0773902 0.0545575
378 1 7.54095 15.9198 0 7.54095 15.9198 0 0.206419 -0.0630939 1.42924
380 1 6.70307 15.9198 0.837884 6.70307 15.9198 0.837884 -1.24902 0.0141658 1.54345
384 1 8.37884 15.9198 0.837884 8.37884 15.9198 0.837884 -1.05235 -1.04758 -1.6863
382 1 9.21672 15.9198 0 9.21672 15.9198 0 -0.129376 -0.102005 -1.6258
388 1 10.0546 15.9198 0.837884 10.0546 15.9198 0.837884 -1.44436 -0.669025 0.382349
386 1 10.8925 15.9198 0 10.8925 15.9198 0 -0.777771 -1.58268 0.157718
392 1 11.7304 15.9198 0.837884 11.7304 15.9198 0.837884 0.783265 0.343361 1.44664
390 1 12.5683 15.9198 0 12.5683 15.9198 0 -0.243505 -0.111178 0.00853657
396 1 13.4061 15.9198 0.837884 13.4061 15.9198 0.837884 1.71649 0.514066 0.189601
394 1 14.244 15.9198 0 14.244 15.9198 0 -0.89386 0.0877389 -1.44317
400 1 15.0819 15.9198 0.837884 15.0819 15.9198 0.837884 0.491365 0.557761 0.548463