ITEM: TIMESTEP
200
ITEM: NUMBER OF ATOMS
500
ITEM: BOX BOUNDS pp pp pp
0.0000000000000000e+00 8.3979809569125372e+00
0.0000000000000000e+00 8.3979809569125372e+00
0.0000000000000000e+00 8.3979809569125372e+00
ITEM: ATOMS id type xs ys zs
1 1 0.0171195 0.980372 0.953103
2 1 0.0187531 0.104539 0.999768
3 1 0.113524 0.0177111 0.0645331
4 1 0.0268878 0.133651 0.128174
5 1 0.253076 0.13412 0.0218542
8 1 0.258412 0.0409275 0.171955
21 1 0.00306734 0.273333 0.991799
23 1 0.184156 0.0959785 0.115247
25 1 0.113107 0.166401 0.0267287
101 1 0.0128805 0.931059 0.195328
102 1 0.0935187 0.0266303 0.221901
105 1 0.184364 0.956919 0.233615
121 1 0.0795099 0.18708 0.22516
125 1 0.18734 0.124027 0.244409
6 1 0.371411 0.115508 0.960129
7 1 0.337262 0.0631787 0.0680795
9 1 0.327219 0.962553 0.98333
12 1 0.486486 0.0735504 0.0595942
27 1 0.285793 0.222414 0.104485
29 1 0.442416 0.250524 0.992545
106 1 0.318981 0.178653 0.259765
109 1 0.385549 0.0346198 0.207821
129 1 0.395867 0.141699 0.134986
10 1 0.558206 0.159146 0.989253
11 1 0.48459 0.917206 0.134626
13 1 0.477051 0.948366 0.987836
16 1 0.596228 0.0472342 0.133151
31 1 0.493365 0.200881 0.0911213
33 1 0.629132 0.27779 0.993087
110 1 0.498756 0.0911785 0.175234
113 1 0.62807 0.93348 0.182967
133 1 0.634123 0.180421 0.169114
14 1 0.671806 0.0496218 0.916611
15 1 0.586172 0.0261186 0.99476
17 1 0.705484 0.937673 0.942927
20 1 0.852133 0.0089533 0.0724052
35 1 0.68742 0.0947926 0.0341593
37 1 0.859967 0.240223 0.950181
114 1 0.727232 0.00065505 0.119211
117 1 0.837555 0.935194 0.183029
137 1 0.771887 0.165211 0.189919
18 1 0.905412 0.113831 0.00482302
19 1 0.990918 0.010584 0.104555
39 1 0.818921 0.158225 0.0784758
118 1 0.85565 0.0786101 0.164876
22 1 0.143463 0.294638 0.064504
24 1 0.0329076 0.249578 0.122394
28 1 0.16653 0.219857 0.14822
41 1 0.0388168 0.388915 0.038636
43 1 0.0682448 0.366214 0.165132
45 1 0.161341 0.413581 0.0294252
122 1 0.152829 0.290322 0.253908
141 1 0.955988 0.346579 0.158307
145 1 0.191686 0.39758 0.180274
26 1 0.26941 0.345117 0.066982
32 1 0.388726 0.29095 0.120768
47 1 0.333374 0.38189 0.180856
49 1 0.374078 0.362685 0.00593717
126 1 0.263312 0.279742 0.2084
149 1 0.425641 0.405057 0.338765
30 1 0.514829 0.346966 0.997385
36 1 0.586588 0.290339 0.141517
51 1 0.48496 0.357066 0.142524
53 1 0.635654 0.390079 0.945821
130 1 0.51677 0.228011 0.216614
153 1 0.601916 0.406264 0.205056
34 1 0.72849 0.35041 0.00623709
40 1 0.748491 0.252558 0.0920981
55 1 0.61502 0.399311 0.0817463
57 1 0.741849 0.499588 0.0147133
134 1 0.71128 0.323039 0.186009
157 1 0.865004 0.262995 0.187785
38 1 0.924986 0.183697 0.114477
59 1 0.881944 0.315439 0.0391614
138 1 0.89616 0.145966 0.255981
42 1 0.0668414 0.501608 0.984883
44 1 0.0080803 0.506215 0.146245
48 1 0.253062 0.521255 0.206148
61 1 0.950357 0.558901 0.981303
63 1 0.141434 0.521586 0.0864418
65 1 0.211233 0.525295 0.977288
142 1 0.124552 0.48787 0.199825
161 1 0.00143242 0.601822 0.236378
165 1 0.18156 0.646923 0.20747
46 1 0.288045 0.467042 0.0581207
52 1 0.42314 0.437864 0.0777984
67 1 0.360796 0.549112 0.0935507
69 1 0.405284 0.496638 0.966279
146 1 0.348893 0.473906 0.265842
169 1 0.41857 0.596724 0.188884
50 1 0.527219 0.453971 0.907568
56 1 0.535316 0.474414 0.0255628
71 1 0.439156 0.611675 0.00315023
73 1 0.567449 0.601295 0.0220271
150 1 0.45459 0.473425 0.227489
173 1 0.584102 0.531668 0.197828
54 1 0.691667 0.650087 0.0419357
60 1 0.766814 0.416288 0.101683
75 1 0.625488 0.63773 0.15249
77 1 0.818935 0.595904 0.014071
154 1 0.649342 0.53343 0.0846834
177 1 0.765556 0.538778 0.13126
58 1 0.893133 0.483757 0.0667388
79 1 0.923935 0.592097 0.133703
158 1 0.923471 0.442763 0.211636
62 1 0.0350882 0.707071 0.986714
64 1 0.0171984 0.645072 0.102781
68 1 0.151084 0.683656 0.0709871
81 1 0.00121406 0.818887 0.00326678
83 1 0.113556 0.896953 0.141789
85 1 0.155226 0.803527 0.0761994
162 1 0.0364118 0.775162 0.135058
181 1 0.968383 0.742643 0.236639
185 1 0.184211 0.792656 0.184584
66 1 0.255746 0.61423 0.0899223
72 1 0.373507 0.663055 0.102163
87 1 0.248755 0.728312 0.100709
89 1 0.408511 0.775148 0.0266563
166 1 0.31088 0.740132 0.233837
189 1 0.352846 0.802565 0.136381
70 1 0.532129 0.725411 0.0282834
76 1 0.578899 0.81913 0.149622
91 1 0.462457 0.798276 0.159953
93 1 0.638654 0.719176 0.965455
170 1 0.50197 0.687014 0.144957
193 1 0.621432 0.838645 0.263793
74 1 0.678079 0.770858 0.0999398
80 1 0.8094 0.717859 0.0671014
95 1 0.736444 0.885312 0.108635
97 1 0.877394 0.762089 0.981123
174 1 0.699151 0.720813 0.202795
197 1 0.787185 0.794844 0.165097
78 1 0.934908 0.673103 0.0281353
99 1 0.930222 0.751395 0.115913
178 1 0.820871 0.660281 0.182889
82 1 0.124794 0.0476635 0.945549
84 1 0.957303 0.923775 0.0444018
88 1 0.228184 0.980595 0.0558287
182 1 0.067957 0.801061 0.254519
86 1 0.278243 0.863605 0.0514454
92 1 0.381256 0.931848 0.0785828
186 1 0.27229 0.886919 0.177617
90 1 0.510871 0.843424 0.0561232
96 1 0.627894 0.919871 0.0685095
190 1 0.396146 0.914057 0.221964
94 1 0.714636 0.814261 0.996858
100 1 0.825953 0.871857 0.996583
194 1 0.730399 0.876718 0.236315
98 1 0.93511 0.891917 0.911837
198 1 0.927021 0.856651 0.243651
103 1 0.113418 0.92621 0.341235
104 1 0.98087 0.0613353 0.269466
108 1 0.250131 0.0938305 0.360048
123 1 0.135332 0.176586 0.348058
201 1 0.0134112 0.0277772 0.382766
202 1 0.137688 0.062027 0.338613
205 1 0.256758 0.937267 0.514472
221 1 0.00449558 0.171946 0.332137
225 1 0.148721 0.19141 0.491281
107 1 0.287863 0.967051 0.295716
112 1 0.366442 0.0615698 0.323122
127 1 0.396491 0.284898 0.277996
206 1 0.24411 0.118352 0.47683
209 1 0.346221 0.00618195 0.434915
229 1 0.345785 0.190505 0.378106
111 1 0.535309 0.0141386 0.276842
116 1 0.564967 0.141393 0.272582
131 1 0.446861 0.156211 0.284879
210 1 0.517408 0.0998429 0.364951
213 1 0.598638 0.00232487 0.420524
233 1 0.578829 0.21614 0.416142
115 1 0.649728 0.0225052 0.30394
120 1 0.783618 0.0223301 0.259744
135 1 0.696086 0.137073 0.278129
214 1 0.648804 0.0995314 0.395741
217 1 0.749069 0.0345148 0.379039
237 1 0.860002 0.294541 0.480253
119 1 0.891332 0.973821 0.285955
139 1 0.977464 0.247227 0.241286
218 1 0.886073 0.06747 0.353951
124 1 0.0804925 0.379482 0.285197
128 1 0.244446 0.249343 0.334827
143 1 0.162854 0.441538 0.373753
222 1 0.132105 0.317849 0.386968
241 1 0.999673 0.437224 0.410124
245 1 0.224917 0.367998 0.457111
132 1 0.47054 0.240413 0.369498
147 1 0.245339 0.384463 0.288559
226 1 0.367326 0.312589 0.412675
249 1 0.434479 0.458096 0.438504
136 1 0.616408 0.251965 0.284423
151 1 0.506676 0.352046 0.260837
230 1 0.544209 0.345457 0.37935
253 1 0.755472 0.391362 0.467241
140 1 0.793253 0.218054 0.28761
155 1 0.689851 0.354222 0.333935
234 1 0.695639 0.222731 0.374046
257 1 0.816946 0.317762 0.370954
159 1 0.967242 0.35345 0.281834
238 1 0.94118 0.303238 0.393616
144 1 0.0492072 0.486985 0.290177
148 1 0.204324 0.537971 0.330422
163 1 0.109767 0.625718 0.322592
242 1 0.0346589 0.546794 0.470005
261 1 0.974092 0.552997 0.371495
265 1 0.211602 0.653881 0.391741
152 1 0.427063 0.535415 0.341286
167 1 0.304557 0.618605 0.275126
246 1 0.303499 0.439747 0.388337
269 1 0.438982 0.625297 0.432294
156 1 0.619329 0.475989 0.306281
171 1 0.51796 0.599524 0.273495
250 1 0.537914 0.522241 0.407905
273 1 0.626509 0.624395 0.324628
160 1 0.80655 0.395956 0.225548
175 1 0.697347 0.467682 0.192571
254 1 0.721217 0.523563 0.35076
277 1 0.726834 0.568062 0.230395
179 1 0.856059 0.540614 0.261229
258 1 0.823608 0.461042 0.330927
164 1 0.896002 0.653908 0.270493
168 1 0.206862 0.736 0.301371
183 1 0.0702275 0.788303 0.377999
262 1 0.990967 0.690413 0.361356
281 1 0.94604 0.801224 0.357593
285 1 0.220228 0.866953 0.32909
172 1 0.402429 0.680915 0.32396
187 1 0.338105 0.849904 0.30328
266 1 0.287276 0.774222 0.368166
289 1 0.433385 0.82928 0.375689
176 1 0.563386 0.72031 0.252118
191 1 0.437196 0.769859 0.264834
270 1 0.496918 0.721103 0.373845
293 1 0.584828 0.793002 0.387372
180 1 0.726347 0.765033 0.3287
195 1 0.683154 0.908867 0.346982
274 1 0.696728 0.683872 0.430496
297 1 0.777822 0.829918 0.4307
199 1 0.839775 0.768235 0.290636
278 1 0.768044 0.665108 0.308112
184 1 0.999337 0.912062 0.374567
188 1 0.205637 0.986985 0.416836
282 1 0.0450321 0.773543 0.507205
192 1 0.451731 0.942985 0.339764
286 1 0.329945 0.881646 0.420216
196 1 0.504985 0.875287 0.247691
290 1 0.525099 0.91067 0.439556
200 1 0.805854 0.901994 0.327464
294 1 0.643578 0.949059 0.519676
298 1 0.900598 0.965933 0.423713
203 1 0.111769 0.907117 0.464857
204 1 0.960534 0.146078 0.444684
208 1 0.163412 0.00380778 0.55684
223 1 0.0290605 0.249044 0.443637
301 1 0.0150063 0.0209962 0.537683
302 1 0.0965405 0.108593 0.570036
305 1 0.308224 0.0330941 0.70982
321 1 0.133935 0.0717181 0.456302
325 1 0.175031 0.235849 0.625997
207 1 0.331467 0.0215363 0.587414
212 1 0.393862 0.116173 0.468826
227 1 0.253428 0.236848 0.451926
306 1 0.285767 0.172848 0.574566
309 1 0.385498 0.105259 0.667652
329 1 0.389998 0.222465 0.499492
211 1 0.478449 0.0144289 0.526905
216 1 0.584613 0.105445 0.498129
231 1 0.517528 0.239812 0.523191
310 1 0.490839 0.129675 0.590716
313 1 0.61534 0.0545807 0.593297
333 1 0.616847 0.184531 0.595996
215 1 0.703119 0.0703559 0.501122
220 1 0.780438 0.147633 0.433081
235 1 0.683 0.201964 0.493954
314 1 0.723051 0.110557 0.626243
317 1 0.768994 0.000952497 0.591502
337 1 0.823879 0.175564 0.543868
219 1 0.890865 0.0623375 0.512229
239 1 0.919758 0.251404 0.570473
318 1 0.911353 0.0104301 0.62374
224 1 5.30499e-05 0.349767 0.501904
228 1 0.152653 0.331477 0.553435
243 1 0.105656 0.443765 0.477175
322 1 0.0469754 0.237766 0.562873
341 1 0.981757 0.451496 0.580899
345 1 0.21445 0.429623 0.577886
232 1 0.49007 0.354665 0.489555
247 1 0.329471 0.424184 0.517363
326 1 0.294903 0.307736 0.552031
349 1 0.482986 0.478652 0.587274
236 1 0.620984 0.313969 0.518376
251 1 0.581736 0.450687 0.515567
330 1 0.550683 0.358107 0.608698
353 1 0.696322 0.417591 0.588367
240 1 0.771821 0.291385 0.573614
255 1 0.800606 0.508083 0.452777
334 1 0.630648 0.29368 0.718469
357 1 0.848005 0.425285 0.582853
259 1 0.886505 0.414729 0.42008
338 1 0.88825 0.330515 0.635484
244 1 0.927938 0.508365 0.486596
248 1 0.172409 0.54747 0.451977
263 1 0.165787 0.623185 0.540949
342 1 0.118663 0.516643 0.581354
361 1 0.0566423 0.629143 0.581392
365 1 0.252322 0.54694 0.607201
252 1 0.345585 0.575508 0.511567
267 1 0.307824 0.570853 0.393992
346 1 0.325263 0.407825 0.639975
369 1 0.489217 0.586883 0.558369
256 1 0.650948 0.436976 0.410274
271 1 0.575357 0.650405 0.440553
350 1 0.593968 0.553781 0.589407
373 1 0.659035 0.647358 0.551989
260 1 0.841983 0.59969 0.38289
275 1 0.658523 0.555128 0.44995
354 1 0.734209 0.555026 0.55078
377 1 0.875629 0.583729 0.568437
279 1 0.870424 0.72696 0.398748
358 1 0.911803 0.521441 0.671593
264 1 0.932734 0.651088 0.477577
268 1 0.266637 0.678533 0.523894
283 1 0.0742151 0.653172 0.459241
362 1 0.133349 0.725086 0.594047
381 1 0.0301462 0.800021 0.646553
385 1 0.217862 0.828745 0.544942
272 1 0.36441 0.721889 0.435129
287 1 0.341946 0.800333 0.55389
366 1 0.404689 0.693763 0.549463
389 1 0.451104 0.863843 0.645058
276 1 0.646099 0.775349 0.585389
291 1 0.497378 0.767072 0.507306
370 1 0.464838 0.745634 0.644958
393 1 0.570097 0.824348 0.687148
280 1 0.790971 0.671192 0.521089
295 1 0.666437 0.848839 0.467058
374 1 0.690464 0.789773 0.721531
397 1 0.766082 0.848722 0.546326
299 1 0.906301 0.851879 0.461614
378 1 0.928085 0.768473 0.563176
284 1 0.98954 0.877953 0.551376
288 1 0.170298 0.743691 0.446665
382 1 0.104942 0.897341 0.614375
292 1 0.426057 0.901689 0.518421
386 1 0.326202 0.9071 0.649659
296 1 0.546209 0.931818 0.611001
390 1 0.459442 0.00335992 0.650521
300 1 0.769096 0.946312 0.465079
394 1 0.692835 0.883181 0.632588
398 1 0.863765 0.924222 0.542993
303 1 0.0653364 0.999281 0.763019
304 1 0.0289276 0.0826958 0.668516
308 1 0.166766 0.0995049 0.704279
323 1 0.0742699 0.185443 0.683076
401 1 0.936217 0.975243 0.795146
402 1 0.0691911 0.132979 0.780209
405 1 0.173615 0.0743536 0.814982
421 1 0.972599 0.22906 0.813399
425 1 0.178376 0.198634 0.803101
307 1 0.25615 0.972401 0.817884
312 1 0.394201 0.218969 0.613601
327 1 0.299537 0.295278 0.677281
406 1 0.291983 0.180685 0.736562
409 1 0.435164 0.974656 0.885811
429 1 0.422979 0.307292 0.76252
311 1 0.422684 0.0500268 0.771049
316 1 0.536688 0.0963701 0.696223
331 1 0.513689 0.252312 0.673425
410 1 0.429804 0.194601 0.744588
413 1 0.624937 0.994964 0.824033
433 1 0.622826 0.174801 0.776156
315 1 0.6814 0.00354806 0.697365
320 1 0.827799 0.0763491 0.695736
335 1 0.771996 0.211848 0.671193
414 1 0.759745 0.116137 0.776795
417 1 0.82724 0.0336714 0.83279
437 1 0.845063 0.172029 0.842583
319 1 0.838584 0.965757 0.726149
339 1 0.968944 0.124428 0.573457
418 1 0.950713 0.0965986 0.760119
324 1 0.991909 0.284948 0.666459
328 1 0.18627 0.302623 0.716895
343 1 0.0778784 0.391073 0.670003
422 1 0.0840652 0.292354 0.76734
441 1 0.0219902 0.433362 0.790371
445 1 0.164335 0.361155 0.837419
332 1 0.434901 0.338009 0.605667
347 1 0.282452 0.373811 0.776238
426 1 0.287601 0.26001 0.827707
449 1 0.422101 0.416991 0.70457
336 1 0.532634 0.361182 0.741473
351 1 0.544045 0.47647 0.695405
430 1 0.534205 0.250746 0.789871
453 1 0.602423 0.459286 0.819642
340 1 0.899491 0.191225 0.68333
355 1 0.659513 0.420187 0.72008
434 1 0.744608 0.264492 0.782727
457 1 0.770321 0.34735 0.692788
359 1 0.954278 0.40867 0.692214
438 1 0.878848 0.305363 0.765051
344 1 0.0442078 0.534324 0.729057
348 1 0.182206 0.491224 0.750598
363 1 0.158339 0.58532 0.675441
442 1 0.021848 0.532486 0.881272
461 1 0.951325 0.583562 0.797613
465 1 0.111118 0.604793 0.791374
352 1 0.404182 0.547589 0.631726
367 1 0.327537 0.639492 0.644707
446 1 0.302648 0.52913 0.730957
469 1 0.380437 0.632419 0.885692
356 1 0.646261 0.569536 0.70408
371 1 0.50516 0.628836 0.673737
450 1 0.427656 0.576235 0.763444
473 1 0.556395 0.627465 0.776984
360 1 0.826323 0.464759 0.722737
375 1 0.730084 0.65675 0.667421
454 1 0.715186 0.514535 0.792086
477 1 0.818807 0.627733 0.73355
379 1 0.953926 0.6716 0.651052
458 1 0.880208 0.415634 0.814532
364 1 0.0849868 0.702397 0.71574
368 1 0.199931 0.695224 0.687886
383 1 0.169424 0.768109 0.795501
462 1 0.0185461 0.686607 0.834271
481 1 0.030479 0.87095 0.779556
485 1 0.171583 0.784166 0.956921
372 1 0.350425 0.796767 0.724364
387 1 0.186889 0.82037 0.676963
466 1 0.294592 0.679695 0.759144
489 1 0.368298 0.747139 0.840451
376 1 0.612282 0.690463 0.686985
391 1 0.461426 0.852834 0.781691
470 1 0.438196 0.703773 0.746717
493 1 0.600423 0.792298 0.810298
380 1 0.81321 0.743661 0.634315
395 1 0.662114 0.906603 0.759741
474 1 0.683663 0.676269 0.800021
497 1 0.813662 0.703172 0.841508
399 1 0.903484 0.821885 0.6675
478 1 0.92366 0.722146 0.753349
384 1 0.999684 0.912468 0.675539
388 1 0.180486 0.972515 0.690603
482 1 0.0970903 0.945823 0.870197
392 1 0.347996 0.925332 0.767882
486 1 0.260432 0.840149 0.789677
396 1 0.551751 0.947671 0.739491
490 1 0.473515 0.831 0.932921
400 1 0.798287 0.852254 0.699977
494 1 0.547978 0.925193 0.893404
498 1 0.898555 0.870009 0.788314
403 1 0.207233 0.183423 0.928289
404 1 0.016192 0.0569379 0.866484
408 1 0.319618 0.0839549 0.816031
423 1 0.0862691 0.159701 0.888491
407 1 0.251026 0.0435802 0.914141
412 1 0.395002 0.213388 0.856734
427 1 0.318749 0.25954 0.954228
411 1 0.503999 0.0759836 0.913974
416 1 0.516759 0.132117 0.814578
431 1 0.554597 0.249262 0.910847
415 1 0.759906 0.92671 0.819838
420 1 0.811887 0.0978 0.940856
435 1 0.733156 0.208195 0.974728
419 1 0.900833 0.0193345 0.931845
439 1 0.969903 0.170985 0.910814
424 1 0.963869 0.341089 0.851083
428 1 0.214956 0.317529 0.952199
443 1 0.0732517 0.362815 0.895142
432 1 0.36788 0.362307 0.866445
447 1 0.277986 0.440772 0.921485
436 1 0.662456 0.28505 0.863563
451 1 0.475828 0.335042 0.889561
440 1 0.810873 0.314686 0.868989
455 1 0.72077 0.397397 0.823538
459 1 0.871996 0.373641 0.941606
444 1 0.976905 0.429112 0.923168
448 1 0.137193 0.501536 0.87399
463 1 0.132182 0.6298 0.95284
452 1 0.414985 0.478823 0.831666
467 1 0.297091 0.541827 0.872297
456 1 0.640452 0.522799 0.928118
471 1 0.502607 0.570919 0.906802
460 1 0.761118 0.451944 0.914469
475 1 0.730764 0.590259 0.887517
479 1 0.865273 0.52656 0.881589
464 1 0.911187 0.6523 0.904188
468 1 0.221623 0.679591 0.872014
483 1 0.0854686 0.821698 0.891509
472 1 0.31255 0.59138 0.988409
487 1 0.28302 0.72139 0.996838
476 1 0.606063 0.6325 0.888952
491 1 0.497641 0.706225 0.912949
480 1 0.754872 0.707538 0.948883
495 1 0.704366 0.811679 0.852149
499 1 0.9507 0.779737 0.860188
484 1 0.113356 0.912687 0.982754
488 1 0.220099 0.905519 0.922629
492 1 0.37089 0.857723 0.920099
496 1 0.604533 0.828178 0.95797
500 1 0.824011 0.848277 0.880126
